/*--------------------------------*- C++ -*----------------------------------*\
| =========                 |                                                 |
| \\      /  F ield         | OpenFOAM: The Open Source CFD Toolbox           |
|  \\    /   O peration     | Version:  v2012                                 |
|   \\  /    A nd           | Website:  www.openfoam.com                      |
|    \\/     M anipulation  |                                                 |
\*---------------------------------------------------------------------------*/
FoamFile
{
    version     2.0;
    format      ascii;
    class       surfaceScalarField;
    location    "1";
    object      phi;
}
// * * * * * * * * * * * * * * * * * * * * * * * * * * * * * * * * * * * * * //

dimensions      [0 3 -1 0 0 0 0];
oriented        oriented;


internalField   nonuniform List<scalar> 
1890
(
0.0093062
0.000693804
0.00828439
0.0010218
0.0073299
0.000954494
0.00648696
0.000842943
0.00576958
0.000717371
0.00518986
0.000579724
0.00473817
0.000451692
0.00439519
0.000342978
0.00413903
0.000256163
0.00394911
0.00018992
0.00380789
0.000141219
0.00370138
0.00010651
0.00361906
8.23202e-05
0.00355341
6.56462e-05
0.00349928
5.41273e-05
0.00345324
4.604e-05
0.00341305
4.01943e-05
0.00337726
3.57928e-05
0.00334494
3.23188e-05
0.00331549
2.94493e-05
0.0032885
2.69886e-05
0.00326368
2.48203e-05
0.0032408
2.28755e-05
0.00321969
2.11124e-05
0.00320019
1.95047e-05
0.00318215
1.8034e-05
0.00316547
1.66867e-05
0.00315002
1.54514e-05
0.0031357
1.43179e-05
0.00312242
1.32771e-05
0.0031101
1.23206e-05
0.00309866
1.14407e-05
0.00308803
1.06304e-05
0.00307815
9.88336e-06
0.00306895
9.19378e-06
0.0030604
8.55651e-06
0.00305243
7.96695e-06
0.00304501
7.42092e-06
0.00303809
6.91475e-06
0.00303165
6.44513e-06
0.00302564
6.00906e-06
0.00302003
5.60383e-06
0.00301481
5.22703e-06
0.00300993
4.8765e-06
0.00300538
4.55024e-06
0.00300113
4.24641e-06
0.00299717
3.96334e-06
0.00299347
3.69956e-06
0.00299002
3.4537e-06
0.00298679
3.22446e-06
0.00298378
3.01062e-06
0.00298097
2.81113e-06
0.00297835
2.62504e-06
0.0029759
2.45142e-06
0.00297361
2.28935e-06
0.00297147
2.13804e-06
0.00296947
1.99682e-06
0.00296761
1.86503e-06
0.00296586
1.74196e-06
0.00296424
1.62699e-06
0.00296272
1.51964e-06
0.0029613
1.41945e-06
0.00295997
1.3259e-06
0.00295873
1.23847e-06
0.00295758
1.15679e-06
0.0029565
1.08055e-06
0.00295549
1.00938e-06
0.00295454
9.42865e-07
0.00295366
8.80695e-07
0.00295284
8.22646e-07
0.00295207
7.68476e-07
0.00295135
7.17868e-07
0.00295068
6.70549e-07
0.00295006
6.2634e-07
0.00294947
5.85095e-07
0.00294893
5.46582e-07
0.00294842
5.10576e-07
0.00294794
4.76903e-07
0.00294749
4.45496e-07
0.00294708
4.16173e-07
0.00294669
3.88781e-07
0.00294632
3.63124e-07
0.00294599
3.39223e-07
0.00294567
3.16867e-07
0.00294537
2.96045e-07
0.0029451
2.76463e-07
0.00294484
2.58322e-07
0.0029446
2.41213e-07
0.00294437
2.2545e-07
0.00294416
2.10425e-07
0.00294396
1.96783e-07
0.00294378
1.83566e-07
0.00294361
1.71818e-07
0.00294345
1.60175e-07
0.0029433
1.50165e-07
0.00294316
1.40082e-07
0.00294303
1.31701e-07
0.0029429
1.24168e-07
0.00294278
1.18298e-07
1.208e-07
0.0103395
0.000354279
0.0105708
0.000790573
0.0106063
0.000918948
0.0105476
0.000901671
0.0104223
0.000842626
0.0102444
0.000757686
0.0100394
0.000656627
0.00982874
0.000553656
0.00962513
0.000459771
0.0094353
0.000379754
0.00926243
0.000314093
0.00910753
0.000261404
0.00897015
0.000219699
0.0088489
0.000186898
0.00874197
0.000161058
0.00864749
0.000140519
0.00856369
0.000123993
0.00848901
0.000110476
0.00842211
9.92199e-05
0.00836188
8.96814e-05
0.0083074
8.14706e-05
0.00825791
7.43078e-05
0.00821279
6.79905e-05
0.00817154
6.237e-05
0.0081337
5.7335e-05
0.00809894
5.28002e-05
0.00806693
4.86983e-05
0.0080374
4.4975e-05
0.00801014
4.15854e-05
0.00798492
3.84919e-05
0.00796158
3.56622e-05
0.00793995
3.30686e-05
0.0079199
3.06872e-05
0.00790128
2.84969e-05
0.007884
2.64793e-05
0.00786793
2.46182e-05
0.007853
2.28993e-05
0.00783911
2.13099e-05
0.00782619
1.98387e-05
0.00781416
1.84756e-05
0.00780296
1.72116e-05
0.00779252
1.60387e-05
0.0077828
1.49494e-05
0.00777374
1.39372e-05
0.00776529
1.29963e-05
0.00775742
1.2121e-05
0.00775007
1.13064e-05
0.00774323
1.05481e-05
0.00773684
9.84193e-06
0.00773088
9.18414e-06
0.00772532
8.57116e-06
0.00772013
7.99976e-06
0.00771529
7.46708e-06
0.00771077
6.97045e-06
0.00770655
6.5073e-06
0.00770261
6.0752e-06
0.00769894
5.67205e-06
0.00769551
5.29599e-06
0.0076923
4.94512e-06
0.00768931
4.61761e-06
0.00768652
4.31185e-06
0.00768391
4.02651e-06
0.00768148
3.76025e-06
0.00767921
3.51165e-06
0.00767708
3.27946e-06
0.0076751
3.06268e-06
0.00767325
2.86038e-06
0.00767152
2.67151e-06
0.00766991
2.49507e-06
0.0076684
2.33025e-06
0.00766699
2.17643e-06
0.00766568
2.03285e-06
0.00766445
1.89871e-06
0.0076633
1.77336e-06
0.00766223
1.65634e-06
0.00766123
1.54713e-06
0.00766029
1.44515e-06
0.00765942
1.34978e-06
0.00765861
1.26074e-06
0.00765785
1.17761e-06
0.00765713
1.10006e-06
0.00765647
1.02745e-06
0.00765585
9.59727e-07
0.00765527
8.96372e-07
0.00765473
8.37442e-07
0.00765422
7.8205e-07
0.00765375
7.30685e-07
0.00765331
6.8222e-07
0.0076529
6.37662e-07
0.00765251
5.95085e-07
0.00765215
5.56584e-07
0.00765182
5.18967e-07
0.0076515
4.8608e-07
0.00765121
4.52431e-07
0.00765094
4.25092e-07
0.00765068
3.94361e-07
0.00765044
3.73323e-07
0.00765022
3.44598e-07
0.00765
3.33343e-07
3.04606e-07
0.0101887
0.000165575
0.0105305
0.000448791
0.0108515
0.000597982
0.0111242
0.00062895
0.0113506
0.000616219
0.0115245
0.000583781
0.0116463
0.000534784
0.0117242
0.00047583
0.011768
0.000415927
0.0117866
0.000361114
0.0117871
0.000313617
0.0117751
0.00027346
0.0117549
0.000239897
0.0117298
0.00021199
0.0117021
0.000188773
0.0116732
0.000169334
0.0116443
0.000152893
0.011616
0.000138812
0.0115886
0.000126594
0.0115624
0.000115864
0.0115376
0.000106345
0.0115141
9.7827e-05
0.0114919
9.01533e-05
0.0114711
8.32034e-05
0.0114515
7.68826e-05
0.0114332
7.11156e-05
0.0114161
6.58403e-05
0.0114
6.10049e-05
0.011385
5.65651e-05
0.0113711
5.24824e-05
0.011358
4.87231e-05
0.0113458
4.52574e-05
0.0113344
4.2059e-05
0.0113238
3.91043e-05
0.0113139
3.63722e-05
0.0113047
3.38436e-05
0.0112961
3.15017e-05
0.0112881
2.93311e-05
0.0112806
2.73177e-05
0.0112736
2.54491e-05
0.0112671
2.3714e-05
0.0112611
2.21019e-05
0.0112554
2.06034e-05
0.0112501
1.92099e-05
0.0112452
1.79134e-05
0.0112406
1.6707e-05
0.0112364
1.5584e-05
0.0112324
1.45381e-05
0.0112286
1.35638e-05
0.0112252
1.26562e-05
0.0112219
1.18105e-05
0.0112189
1.10221e-05
0.0112161
1.02871e-05
0.0112135
9.60176e-06
0.011211
8.96277e-06
0.0112087
8.36679e-06
0.0112066
7.81073e-06
0.0112046
7.29193e-06
0.0112027
6.80801e-06
0.011201
6.35653e-06
0.0111994
5.93509e-06
0.0111978
5.54167e-06
0.0111964
5.17457e-06
0.0111951
4.83205e-06
0.0111939
4.51225e-06
0.0111927
4.21358e-06
0.0111916
3.93477e-06
0.0111906
3.67463e-06
0.0111897
3.43177e-06
0.0111888
3.20489e-06
0.011188
2.993e-06
0.0111872
2.79527e-06
0.0111865
2.61073e-06
0.0111859
2.43832e-06
0.0111853
2.27723e-06
0.0111847
2.12685e-06
0.0111841
1.98657e-06
0.0111836
1.85549e-06
0.0111832
1.73301e-06
0.0111827
1.61856e-06
0.0111823
1.51189e-06
0.0111819
1.41213e-06
0.0111816
1.31905e-06
0.0111812
1.23183e-06
0.0111809
1.15083e-06
0.0111806
1.07467e-06
0.0111803
1.00416e-06
0.0111801
9.37366e-07
0.0111798
8.76311e-07
0.0111796
8.17505e-07
0.0111794
7.64996e-07
0.0111792
7.12669e-07
0.011179
6.68348e-07
0.0111789
6.20798e-07
0.0111787
5.84951e-07
0.0111786
5.40102e-07
0.0111784
5.1409e-07
0.0111783
4.6912e-07
0.0111782
4.55249e-07
4.09038e-07
0.0100972
6.83936e-05
0.010347
0.000199011
0.0106625
0.000282474
0.0109828
0.000308666
0.0112902
0.000308743
0.0115753
0.000298758
0.011829
0.000281013
0.0120479
0.000256988
0.0122333
0.00023052
0.0123892
0.000205146
0.0125203
0.000182562
0.0126308
0.000163
0.0127244
0.000146225
0.0128045
0.000131903
0.0128736
0.000119674
0.0129338
0.000109175
0.0129866
0.000100069
0.0130333
9.20763e-05
0.013075
8.49752e-05
0.0131122
7.85986e-05
0.0131457
7.28223e-05
0.013176
6.75539e-05
0.0132034
6.27239e-05
0.0132284
5.82789e-05
0.0132511
5.4177e-05
0.0132718
5.03844e-05
0.0132908
4.68732e-05
0.0133082
4.36192e-05
0.0133241
4.06015e-05
0.0133388
3.78013e-05
0.0133523
3.52018e-05
0.0133648
3.27876e-05
0.0133763
3.05447e-05
0.0133869
2.84602e-05
0.0133968
2.65223e-05
0.0134059
2.47202e-05
0.0134144
2.30439e-05
0.0134222
2.14842e-05
0.0134295
2.00326e-05
0.0134363
1.86813e-05
0.0134426
1.7423e-05
0.0134484
1.62512e-05
0.0134539
1.51597e-05
0.0134589
1.41428e-05
0.0134637
1.31951e-05
0.013468
1.23119e-05
0.0134721
1.14888e-05
0.013476
1.07214e-05
0.0134795
1.00058e-05
0.0134828
9.33854e-06
0.0134859
8.71634e-06
0.0134888
8.1361e-06
0.0134915
7.59476e-06
0.013494
7.08965e-06
0.0134964
6.61849e-06
0.0134986
6.17903e-06
0.0135006
5.76891e-06
0.0135025
5.38603e-06
0.0135043
5.02873e-06
0.0135059
4.69544e-06
0.0135075
4.38438e-06
0.0135089
4.09387e-06
0.0135103
3.82261e-06
0.0135116
3.56955e-06
0.0135127
3.33342e-06
0.0135138
3.11285e-06
0.0135149
2.90678e-06
0.0135158
2.71447e-06
0.0135167
2.53509e-06
0.0135176
2.36756e-06
0.0135183
2.21098e-06
0.0135191
2.06477e-06
0.0135197
1.92842e-06
0.0135204
1.80114e-06
0.013521
1.68217e-06
0.0135215
1.57097e-06
0.0135221
1.46729e-06
0.0135225
1.37053e-06
0.013523
1.28012e-06
0.0135234
1.1955e-06
0.0135238
1.11665e-06
0.0135242
1.04299e-06
0.0135245
9.74314e-07
0.0135248
9.09825e-07
0.0135251
8.49975e-07
0.0135254
7.93695e-07
0.0135257
7.41723e-07
0.0135259
6.92255e-07
0.0135262
6.47288e-07
0.0135264
6.03659e-07
0.0135266
5.65138e-07
0.0135268
5.26098e-07
0.0135269
4.93865e-07
0.0135271
4.58084e-07
0.0135273
4.32417e-07
0.0135274
3.9822e-07
0.0135275
3.80055e-07
0.0135277
3.44963e-07
0.0135278
3.35244e-07
3.00714e-07
0.0100684
2.10747e-12
0.0102674
6.30248e-12
0.0105499
9.38982e-12
0.0108585
1.12377e-11
0.0111673
1.18987e-11
0.011466
1.14776e-11
0.0117471
1.01395e-11
0.012004
7.74879e-12
0.0122346
3.81208e-12
0.0124397
-1.54226e-12
0.0126223
-7.2392e-12
0.0127853
-1.26366e-11
0.0129315
-1.78101e-11
0.0130634
-2.31886e-11
0.0131831
-2.76162e-11
0.0132923
-2.98362e-11
0.0133923
-3.04617e-11
0.0134844
-3.13664e-11
0.0135694
-3.34522e-11
0.013648
-3.33171e-11
0.0137208
-2.86108e-11
0.0137883
-2.09858e-11
0.0138511
-1.64425e-11
0.0139094
-1.34073e-11
0.0139635
-1.4352e-12
0.0140139
1.90947e-11
0.0140608
3.31591e-11
0.0141044
3.56327e-11
0.014145
4.27306e-11
0.0141828
6.63924e-11
0.014218
8.52619e-11
0.0142508
7.66943e-11
0.0142813
5.89871e-11
0.0143098
6.24747e-11
0.0143363
8.34437e-11
0.014361
7.32353e-11
0.0143841
1.96563e-11
0.0144056
-1.57131e-11
0.0144256
9.53306e-12
0.0144443
1.82159e-11
0.0144617
-5.03092e-11
0.014478
-1.26648e-10
0.0144931
-9.68301e-11
0.0145073
-3.80993e-11
0.0145205
-6.70516e-11
0.0145328
-1.71879e-10
0.0145443
-1.69286e-10
0.014555
-5.00941e-11
0.014565
-4.65988e-12
0.0145743
-1.02137e-10
0.014583
-1.51217e-10
0.0145912
-1.28074e-11
0.0145988
1.31561e-10
0.0146059
6.53794e-11
0.0146125
-4.95511e-11
0.0146187
2.87829e-11
0.0146244
2.19831e-10
0.0146298
2.11405e-10
0.0146348
4.00182e-11
0.0146395
1.24806e-11
0.0146439
1.83992e-10
0.014648
2.47553e-10
0.0146518
7.05008e-11
0.0146554
-7.94174e-11
0.0146587
2.85208e-11
0.0146619
1.44237e-10
0.0146648
3.20411e-11
0.0146675
-1.76042e-10
0.01467
-1.60429e-10
0.0146724
2.83065e-12
0.0146746
-1.24125e-13
0.0146767
-1.79229e-10
0.0146786
-2.29415e-10
0.0146804
-7.29328e-11
0.0146821
3.26953e-11
0.0146836
-7.37236e-11
0.0146851
-1.71272e-10
0.0146865
-6.02437e-11
0.0146878
8.75756e-11
0.0146889
3.84432e-11
0.0146901
-8.12924e-11
0.0146911
-2.9022e-11
0.0146921
1.02289e-10
0.014693
7.76708e-11
0.0146938
-1.78516e-11
0.0146946
1.29317e-11
0.0146954
8.69539e-11
0.0146961
5.83205e-11
0.0146967
1.15453e-11
0.0146973
2.62951e-11
0.0146979
2.423e-11
0.0146984
-1.7053e-12
0.0146989
-2.06556e-12
0.0146994
1.52952e-11
0.0146998
2.12713e-12
0.0147002
1.14139e-11
0.0147006
2.18027e-11
0.0147009
1.3865e-11
0.0147013
-3.5717e-12
-4.55642e-11
0.0100684
-6.83936e-05
0.0102674
-0.000199011
0.0105499
-0.000282474
0.0108585
-0.000308666
0.0111673
-0.000308743
0.011466
-0.000298758
0.0117471
-0.000281013
0.012004
-0.000256988
0.0122346
-0.00023052
0.0124397
-0.000205146
0.0126223
-0.000182562
0.0127853
-0.000163
0.0129315
-0.000146225
0.0130634
-0.000131903
0.0131831
-0.000119674
0.0132923
-0.000109175
0.0133923
-0.000100069
0.0134844
-9.20764e-05
0.0135694
-8.49753e-05
0.013648
-7.85986e-05
0.0137208
-7.28223e-05
0.0137883
-6.7554e-05
0.0138511
-6.27239e-05
0.0139094
-5.82789e-05
0.0139635
-5.4177e-05
0.0140139
-5.03844e-05
0.0140608
-4.68731e-05
0.0141044
-4.36191e-05
0.014145
-4.06014e-05
0.0141828
-3.78012e-05
0.014218
-3.52017e-05
0.0142508
-3.27874e-05
0.0142813
-3.05445e-05
0.0143098
-2.846e-05
0.0143363
-2.65222e-05
0.014361
-2.47201e-05
0.0143841
-2.30438e-05
0.0144056
-2.14842e-05
0.0144256
-2.00326e-05
0.0144443
-1.86813e-05
0.0144617
-1.74231e-05
0.014478
-1.62513e-05
0.0144931
-1.51599e-05
0.0145073
-1.41429e-05
0.0145205
-1.31953e-05
0.0145328
-1.23122e-05
0.0145443
-1.1489e-05
0.014555
-1.07216e-05
0.014565
-1.00059e-05
0.0145743
-9.33868e-06
0.014583
-8.71651e-06
0.0145912
-8.13615e-06
0.0145988
-7.59466e-06
0.0146059
-7.08954e-06
0.0146125
-6.61844e-06
0.0146187
-6.17891e-06
0.0146244
-5.76863e-06
0.0146298
-5.38572e-06
0.0146348
-5.02854e-06
0.0146395
-4.69528e-06
0.0146439
-4.38411e-06
0.014648
-4.09355e-06
0.0146518
-3.82244e-06
0.0146554
-3.56952e-06
0.0146587
-3.33336e-06
0.0146619
-3.11273e-06
0.0146648
-2.90677e-06
0.0146675
-2.71465e-06
0.01467
-2.5353e-06
0.0146724
-2.36768e-06
0.0146746
-2.2111e-06
0.0146767
-2.06503e-06
0.0146786
-1.92873e-06
0.0146804
-1.80132e-06
0.0146821
-1.68225e-06
0.0146836
-1.57111e-06
0.0146851
-1.46748e-06
0.0146865
-1.37062e-06
0.0146878
-1.28007e-06
0.0146889
-1.19547e-06
0.0146901
-1.11669e-06
0.0146911
-1.04298e-06
0.0146921
-9.74189e-07
0.014693
-9.0971e-07
0.0146938
-8.49939e-07
0.0146946
-7.93636e-07
0.0146954
-7.41601e-07
0.0146961
-6.92162e-07
0.0146967
-6.47249e-07
0.0146973
-6.03623e-07
0.0146979
-5.65107e-07
0.0146984
-5.26091e-07
0.0146989
-4.93868e-07
0.0146994
-4.5807e-07
0.0146998
-4.3241e-07
0.0147002
-3.98195e-07
0.0147006
-3.80028e-07
0.0147009
-3.44954e-07
0.0147013
-3.35258e-07
-3.00798e-07
0.0100972
-0.000165575
0.010347
-0.000448791
0.0106625
-0.000597982
0.0109828
-0.00062895
0.0112902
-0.000616219
0.0115753
-0.000583781
0.011829
-0.000534784
0.0120479
-0.00047583
0.0122333
-0.000415927
0.0123892
-0.000361114
0.0125203
-0.000313617
0.0126308
-0.00027346
0.0127244
-0.000239897
0.0128045
-0.00021199
0.0128736
-0.000188773
0.0129338
-0.000169334
0.0129866
-0.000152893
0.0130333
-0.000138812
0.013075
-0.000126594
0.0131122
-0.000115864
0.0131457
-0.000106345
0.013176
-9.7827e-05
0.0132034
-9.01534e-05
0.0132284
-8.32034e-05
0.0132511
-7.68826e-05
0.0132718
-7.11156e-05
0.0132908
-6.58403e-05
0.0133082
-6.10049e-05
0.0133241
-5.6565e-05
0.0133388
-5.24823e-05
0.0133523
-4.8723e-05
0.0133648
-4.52573e-05
0.0133763
-4.20589e-05
0.0133869
-3.91042e-05
0.0133968
-3.63721e-05
0.0134059
-3.38436e-05
0.0134144
-3.15017e-05
0.0134222
-2.9331e-05
0.0134295
-2.73177e-05
0.0134363
-2.54492e-05
0.0134426
-2.37141e-05
0.0134484
-2.21019e-05
0.0134539
-2.06035e-05
0.0134589
-1.92101e-05
0.0134637
-1.79137e-05
0.013468
-1.67071e-05
0.0134721
-1.5584e-05
0.013476
-1.45383e-05
0.0134795
-1.3564e-05
0.0134828
-1.26563e-05
0.0134859
-1.18104e-05
0.0134888
-1.10221e-05
0.0134915
-1.02872e-05
0.013494
-9.60175e-06
0.0134964
-8.96256e-06
0.0134986
-8.36656e-06
0.0135006
-7.81066e-06
0.0135025
-7.29188e-06
0.0135043
-6.80777e-06
0.0135059
-6.3562e-06
0.0135075
-5.93493e-06
0.0135089
-5.54167e-06
0.0135103
-5.17448e-06
0.0135116
-4.83181e-06
0.0135127
-4.51214e-06
0.0135138
-4.21369e-06
0.0135149
-3.93491e-06
0.0135158
-3.67461e-06
0.0135167
-3.43175e-06
0.0135176
-3.20507e-06
0.0135183
-2.99328e-06
0.0135191
-2.79541e-06
0.0135197
-2.61075e-06
0.0135204
-2.43843e-06
0.013521
-2.27747e-06
0.0135215
-2.127e-06
0.0135221
-1.98654e-06
0.0135225
-1.85546e-06
0.013523
-1.7331e-06
0.0135234
-1.61863e-06
0.0135238
-1.51182e-06
0.0135242
-1.41202e-06
0.0135245
-1.31902e-06
0.0135248
-1.23183e-06
0.0135251
-1.15076e-06
0.0135254
-1.07458e-06
0.0135257
-1.00411e-06
0.0135259
-9.37332e-07
0.0135262
-8.76285e-07
0.0135264
-8.17494e-07
0.0135266
-7.64977e-07
0.0135268
-7.12643e-07
0.0135269
-6.6835e-07
0.0135271
-6.20808e-07
0.0135273
-5.8495e-07
0.0135274
-5.40084e-07
0.0135275
-5.14081e-07
0.0135277
-4.69128e-07
0.0135278
-4.55268e-07
-4.09097e-07
0.0101887
-0.000354279
0.0105305
-0.000790573
0.0108515
-0.000918948
0.0111242
-0.000901671
0.0113506
-0.000842626
0.0115245
-0.000757686
0.0116463
-0.000656627
0.0117242
-0.000553656
0.011768
-0.000459771
0.0117866
-0.000379754
0.0117871
-0.000314093
0.0117751
-0.000261404
0.0117549
-0.000219699
0.0117298
-0.000186898
0.0117021
-0.000161058
0.0116732
-0.000140519
0.0116443
-0.000123993
0.011616
-0.000110476
0.0115886
-9.92199e-05
0.0115624
-8.96814e-05
0.0115376
-8.14707e-05
0.0115141
-7.43078e-05
0.0114919
-6.79905e-05
0.0114711
-6.237e-05
0.0114515
-5.7335e-05
0.0114332
-5.28002e-05
0.0114161
-4.86983e-05
0.0114
-4.49749e-05
0.011385
-4.15854e-05
0.0113711
-3.84918e-05
0.011358
-3.56621e-05
0.0113458
-3.30686e-05
0.0113344
-3.06871e-05
0.0113238
-2.84968e-05
0.0113139
-2.64793e-05
0.0113047
-2.46182e-05
0.0112961
-2.28993e-05
0.0112881
-2.13098e-05
0.0112806
-1.98387e-05
0.0112736
-1.84757e-05
0.0112671
-1.72117e-05
0.0112611
-1.60387e-05
0.0112554
-1.49495e-05
0.0112501
-1.39374e-05
0.0112452
-1.29964e-05
0.0112406
-1.2121e-05
0.0112364
-1.13065e-05
0.0112324
-1.05482e-05
0.0112286
-9.84208e-06
0.0112252
-9.18416e-06
0.0112219
-8.57107e-06
0.0112189
-7.99975e-06
0.0112161
-7.46717e-06
0.0112135
-6.97045e-06
0.011211
-6.50712e-06
0.0112087
-6.07504e-06
0.0112066
-5.67206e-06
0.0112046
-5.296e-06
0.0112027
-4.94495e-06
0.011201
-4.61738e-06
0.0111994
-4.3118e-06
0.0111978
-4.02658e-06
0.0111964
-3.7602e-06
0.0111951
-3.51147e-06
0.0111939
-3.2794e-06
0.0111927
-3.06281e-06
0.0111916
-2.86049e-06
0.0111906
-2.67146e-06
0.0111897
-2.49503e-06
0.0111888
-2.33039e-06
0.011188
-2.17662e-06
0.0111872
-2.0329e-06
0.0111865
-1.89868e-06
0.0111859
-1.77343e-06
0.0111853
-1.65652e-06
0.0111847
-1.54721e-06
0.0111841
-1.44508e-06
0.0111836
-1.34975e-06
0.0111832
-1.26082e-06
0.0111827
-1.17766e-06
0.0111823
-1.09998e-06
0.0111819
-1.02737e-06
0.0111816
-9.59738e-07
0.0111812
-8.96385e-07
0.0111809
-8.37389e-07
0.0111806
-7.82e-07
0.0111803
-7.30675e-07
0.0111801
-6.82208e-07
0.0111798
-6.37651e-07
0.0111796
-5.95091e-07
0.0111794
-5.56578e-07
0.0111792
-5.1895e-07
0.011179
-4.86088e-07
0.0111789
-4.52449e-07
0.0111787
-4.25102e-07
0.0111786
-3.9436e-07
0.0111784
-3.73323e-07
0.0111783
-3.44602e-07
0.0111782
-3.33349e-07
-3.04632e-07
0.0103395
-0.000693804
0.0105708
-0.0010218
0.0106063
-0.000954494
0.0105476
-0.000842943
0.0104223
-0.000717371
0.0102444
-0.000579724
0.0100394
-0.000451692
0.00982874
-0.000342978
0.00962514
-0.000256163
0.0094353
-0.00018992
0.00926243
-0.000141219
0.00910753
-0.00010651
0.00897015
-8.23202e-05
0.0088489
-6.56462e-05
0.00874197
-5.41273e-05
0.00864749
-4.60401e-05
0.00856369
-4.01943e-05
0.00848901
-3.57928e-05
0.00842211
-3.23188e-05
0.00836188
-2.94493e-05
0.0083074
-2.69886e-05
0.00825791
-2.48203e-05
0.00821279
-2.28755e-05
0.00817154
-2.11124e-05
0.0081337
-1.95047e-05
0.00809894
-1.8034e-05
0.00806693
-1.66867e-05
0.0080374
-1.54514e-05
0.00801014
-1.43179e-05
0.00798492
-1.32771e-05
0.00796158
-1.23206e-05
0.00793995
-1.14407e-05
0.0079199
-1.06304e-05
0.00790128
-9.88336e-06
0.007884
-9.19378e-06
0.00786793
-8.55652e-06
0.007853
-7.96694e-06
0.00783911
-7.42092e-06
0.00782619
-6.91477e-06
0.00781416
-6.44515e-06
0.00780296
-6.00906e-06
0.00779252
-5.60382e-06
0.0077828
-5.22705e-06
0.00777374
-4.87654e-06
0.00776529
-4.55026e-06
0.00775742
-4.2464e-06
0.00775007
-3.96334e-06
0.00774323
-3.69959e-06
0.00773684
-3.45373e-06
0.00773088
-3.22444e-06
0.00772532
-3.01059e-06
0.00772013
-2.81114e-06
0.00771529
-2.62507e-06
0.00771077
-2.45141e-06
0.00770655
-2.2893e-06
0.00770261
-2.13802e-06
0.00769894
-1.99685e-06
0.00769551
-1.86503e-06
0.0076923
-1.74191e-06
0.00768931
-1.62695e-06
0.00768652
-1.51966e-06
0.00768391
-1.41948e-06
0.00768148
-1.32587e-06
0.00767921
-1.23842e-06
0.00767708
-1.15679e-06
0.0076751
-1.08059e-06
0.00767325
-1.00939e-06
0.00767152
-9.42834e-07
0.00766991
-8.80688e-07
0.0076684
-8.22687e-07
0.00766699
-7.68511e-07
0.00766568
-7.17859e-07
0.00766445
-6.70535e-07
0.0076633
-6.26369e-07
0.00766223
-5.85141e-07
0.00766123
-5.4659e-07
0.00766029
-5.10556e-07
0.00765942
-4.76911e-07
0.00765861
-4.45532e-07
0.00765785
-4.16182e-07
0.00765713
-3.88758e-07
0.00765647
-3.63116e-07
0.00765585
-3.39235e-07
0.00765527
-3.16863e-07
0.00765473
-2.96025e-07
0.00765422
-2.76457e-07
0.00765375
-2.58321e-07
0.00765331
-2.41203e-07
0.0076529
-2.25447e-07
0.00765251
-2.1043e-07
0.00765215
-1.96778e-07
0.00765182
-1.83559e-07
0.0076515
-1.71824e-07
0.00765121
-1.60181e-07
0.00765094
-1.50168e-07
0.00765068
-1.40084e-07
0.00765044
-1.31703e-07
0.00765022
-1.24169e-07
0.00765
-1.18298e-07
-1.20807e-07
0.0093062
0.00828439
0.0073299
0.00648696
0.00576958
0.00518986
0.00473817
0.00439519
0.00413903
0.00394911
0.00380789
0.00370138
0.00361906
0.00355341
0.00349928
0.00345324
0.00341305
0.00337726
0.00334494
0.00331549
0.0032885
0.00326368
0.00324081
0.00321969
0.00320019
0.00318215
0.00316547
0.00315002
0.0031357
0.00312242
0.0031101
0.00309866
0.00308803
0.00307815
0.00306895
0.0030604
0.00305243
0.00304501
0.00303809
0.00303165
0.00302564
0.00302003
0.00301481
0.00300993
0.00300538
0.00300113
0.00299717
0.00299347
0.00299002
0.00298679
0.00298378
0.00298097
0.00297835
0.0029759
0.00297361
0.00297147
0.00296947
0.00296761
0.00296586
0.00296424
0.00296272
0.0029613
0.00295997
0.00295873
0.00295758
0.0029565
0.00295549
0.00295454
0.00295366
0.00295284
0.00295207
0.00295135
0.00295068
0.00295006
0.00294947
0.00294893
0.00294842
0.00294794
0.00294749
0.00294708
0.00294669
0.00294632
0.00294599
0.00294567
0.00294537
0.0029451
0.00294484
0.0029446
0.00294437
0.00294416
0.00294396
0.00294378
0.00294361
0.00294345
0.0029433
0.00294316
0.00294303
0.0029429
0.00294278
)
;

boundaryField
{
    inlet
    {
        type            calculated;
        value           nonuniform List<scalar> 10(-0.01 -0.01 -0.01 -0.01 -0.01 -0.01 -0.01 -0.01 -0.01 -0.01);
    }
    outlet
    {
        type            calculated;
        value           nonuniform List<scalar> 10(0.00294266 0.00764982 0.0111781 0.0135279 0.0147016 0.0147016 0.0135279 0.0111781 0.00764982 0.00294266);
    }
    top
    {
        type            calculated;
        value           uniform 0;
    }
    bottom
    {
        type            calculated;
        value           uniform 0;
    }
    frontAndBack
    {
        type            empty;
        value           nonuniform List<scalar> 0();
    }
}


// ************************************************************************* //
