/*--------------------------------*- C++ -*----------------------------------*\
| =========                 |                                                 |
| \\      /  F ield         | OpenFOAM: The Open Source CFD Toolbox           |
|  \\    /   O peration     | Version:  v2012                                 |
|   \\  /    A nd           | Website:  www.openfoam.com                      |
|    \\/     M anipulation  |                                                 |
\*---------------------------------------------------------------------------*/
FoamFile
{
    version     2.0;
    format      ascii;
    class       volVectorField;
    location    "1";
    object      U;
}
// * * * * * * * * * * * * * * * * * * * * * * * * * * * * * * * * * * * * * //

dimensions      [0 1 -1 0 0 0 0];


internalField   nonuniform List<vector> 
1000
(
(9.18908 0.358219 0)
(8.62714 0.621956 0)
(7.8706 0.625101 0)
(6.9536 0.545504 0)
(6.10897 0.445317 0)
(5.44116 0.34016 0)
(4.9343 0.241875 0)
(4.54794 0.161442 0)
(4.25446 0.102658 0)
(4.03473 0.0630415 0)
(3.87158 0.0379763 0)
(3.74962 0.0231034 0)
(3.65662 0.0149301 0)
(3.58363 0.0108512 0)
(3.52443 0.00906072 0)
(3.47482 0.00841052 0)
(3.43203 0.00823724 0)
(3.39427 0.0081931 0)
(3.36038 0.00811852 0)
(3.32961 0.00795801 0)
(3.30148 0.00770811 0)
(3.27564 0.00738709 0)
(3.25184 0.00701889 0)
(3.22989 0.00662566 0)
(3.20962 0.006225 0)
(3.19088 0.00582958 0)
(3.17354 0.00544772 0)
(3.1575 0.00508435 0)
(3.14264 0.00474192 0)
(3.12886 0.00442125 0)
(3.11608 0.0041221 0)
(3.10421 0.00384362 0)
(3.09319 0.00358465 0)
(3.08294 0.0033439 0)
(3.07342 0.00312007 0)
(3.06455 0.00291188 0)
(3.0563 0.00271815 0)
(3.04861 0.00253777 0)
(3.04145 0.00236975 0)
(3.03478 0.00221315 0)
(3.02856 0.00206714 0)
(3.02276 0.00193095 0)
(3.01735 0.00180387 0)
(3.0123 0.00168528 0)
(3.00759 0.00157457 0)
(3.0032 0.00147118 0)
(2.9991 0.00137463 0)
(2.99527 0.00128446 0)
(2.9917 0.00120023 0)
(2.98836 0.00112153 0)
(2.98525 0.00104799 0)
(2.98234 0.000979289 0)
(2.97962 0.000915104 0)
(2.97709 0.000855117 0)
(2.97472 0.000799044 0)
(2.97251 0.000746651 0)
(2.97044 0.000697705 0)
(2.96851 0.00065196 0)
(2.96671 0.00060919 0)
(2.96503 0.000569217 0)
(2.96346 0.00053188 0)
(2.96199 0.000496993 0)
(2.96062 0.000464374 0)
(2.95934 0.000433877 0)
(2.95814 0.00040539 0)
(2.95702 0.000378786 0)
(2.95598 0.000353915 0)
(2.955 0.000330654 0)
(2.95409 0.000308923 0)
(2.95324 0.000288635 0)
(2.95245 0.000269679 0)
(2.9517 0.000251948 0)
(2.95101 0.000235374 0)
(2.95036 0.000219902 0)
(2.94976 0.000205459 0)
(2.94919 0.000191949 0)
(2.94866 0.000179315 0)
(2.94817 0.000167514 0)
(2.94771 0.000156512 0)
(2.94728 0.00014622 0)
(2.94688 0.000136596 0)
(2.9465 0.000127593 0)
(2.94615 0.000119217 0)
(2.94582 0.000111368 0)
(2.94552 0.000104048 0)
(2.94523 9.7171e-05 0)
(2.94496 9.0811e-05 0)
(2.94471 8.47988e-05 0)
(2.94448 7.92594e-05 0)
(2.94426 7.39851e-05 0)
(2.94406 6.91932e-05 0)
(2.94387 6.45595e-05 0)
(2.94369 6.0427e-05 0)
(2.94353 5.63989e-05 0)
(2.94337 5.28461e-05 0)
(2.94323 4.95332e-05 0)
(2.94309 4.65402e-05 0)
(2.94296 4.47943e-05 0)
(2.94285 4.3202e-05 0)
(2.94267 4.74357e-05 0)
(10.0166 0.538194 0)
(10.3598 1.01284 0)
(10.5972 1.10737 0)
(10.6289 1.05922 0)
(10.5156 0.962287 0)
(10.3405 0.839341 0)
(10.1428 0.703271 0)
(9.93607 0.569813 0)
(9.72926 0.451075 0)
(9.53107 0.352367 0)
(9.34795 0.274016 0)
(9.1829 0.213872 0)
(9.03624 0.168845 0)
(8.90681 0.135697 0)
(8.79282 0.111477 0)
(8.69232 0.0937366 0)
(8.60344 0.0805693 0)
(8.52447 0.0705713 0)
(8.45392 0.0627524 0)
(8.39058 0.0564383 0)
(8.33341 0.0511809 0)
(8.28159 0.0466867 0)
(8.23442 0.0427642 0)
(8.19135 0.0392874 0)
(8.1519 0.036172 0)
(8.11568 0.0333597 0)
(8.08235 0.0308081 0)
(8.05164 0.0284847 0)
(8.0233 0.0263637 0)
(7.9971 0.0244234 0)
(7.97286 0.0226452 0)
(7.95041 0.0210129 0)
(7.9296 0.0195123 0)
(7.91029 0.0181306 0)
(7.89236 0.0168568 0)
(7.87571 0.0156809 0)
(7.86023 0.0145941 0)
(7.84584 0.0135884 0)
(7.83245 0.0126568 0)
(7.81999 0.0117931 0)
(7.80839 0.0109917 0)
(7.79758 0.0102474 0)
(7.78751 0.00955573 0)
(7.77813 0.00891262 0)
(7.76939 0.00831435 0)
(7.76124 0.00775747 0)
(7.75364 0.00723887 0)
(7.74655 0.00675577 0)
(7.73994 0.00630568 0)
(7.73377 0.00588616 0)
(7.72802 0.00549497 0)
(7.72265 0.00513011 0)
(7.71764 0.00478986 0)
(7.71296 0.0044725 0)
(7.7086 0.00417634 0)
(7.70452 0.00389988 0)
(7.70072 0.0036419 0)
(7.69717 0.00340119 0)
(7.69386 0.00317648 0)
(7.69076 0.00296661 0)
(7.68788 0.00277063 0)
(7.68518 0.00258775 0)
(7.68266 0.00241703 0)
(7.68031 0.00225753 0)
(7.67811 0.00210851 0)
(7.67606 0.00196941 0)
(7.67415 0.00183959 0)
(7.67236 0.00171831 0)
(7.67069 0.00160495 0)
(7.66913 0.00149908 0)
(7.66768 0.0014003 0)
(7.66631 0.00130805 0)
(7.66504 0.0012218 0)
(7.66386 0.00114121 0)
(7.66275 0.00106601 0)
(7.66172 0.000995819 0)
(7.66075 0.000930215 0)
(7.65985 0.000868848 0)
(7.659 0.000811589 0)
(7.65822 0.000758149 0)
(7.65748 0.000708249 0)
(7.65679 0.000661503 0)
(7.65615 0.000617925 0)
(7.65555 0.000577191 0)
(7.65499 0.000539257 0)
(7.65447 0.000503592 0)
(7.65398 0.000470519 0)
(7.65352 0.000439367 0)
(7.6531 0.000410635 0)
(7.6527 0.00038328 0)
(7.65233 0.000358414 0)
(7.65198 0.000334343 0)
(7.65166 0.000312945 0)
(7.65135 0.000291643 0)
(7.65107 0.000273557 0)
(7.6508 0.000254634 0)
(7.65057 0.000239961 0)
(7.65031 0.000223628 0)
(7.65015 0.000214006 0)
(7.64983 0.000204116 0)
(10.0142 0.268249 0)
(10.2913 0.627914 0)
(10.6543 0.777366 0)
(10.9896 0.805972 0)
(11.2531 0.782852 0)
(11.4505 0.731539 0)
(11.5949 0.661113 0)
(11.6943 0.581621 0)
(11.7554 0.502968 0)
(11.7857 0.431507 0)
(11.7936 0.369728 0)
(11.7859 0.317716 0)
(11.7683 0.274518 0)
(11.7445 0.238868 0)
(11.7173 0.209476 0)
(11.6884 0.185158 0)
(11.6592 0.164881 0)
(11.6303 0.147795 0)
(11.6023 0.13323 0)
(11.5754 0.120671 0)
(11.5498 0.10973 0)
(11.5256 0.100111 0)
(11.5027 0.0915875 0)
(11.4812 0.083986 0)
(11.4611 0.0771695 0)
(11.4421 0.0710289 0)
(11.4244 0.0654759 0)
(11.4078 0.060438 0)
(11.3923 0.0558543 0)
(11.3779 0.0516735 0)
(11.3644 0.0478516 0)
(11.3517 0.0443508 0)
(11.34 0.0411382 0)
(11.329 0.0381852 0)
(11.3187 0.0354666 0)
(11.3092 0.0329603 0)
(11.3003 0.0306469 0)
(11.292 0.028509 0)
(11.2842 0.0265311 0)
(11.277 0.0246996 0)
(11.2703 0.0230023 0)
(11.264 0.0214281 0)
(11.2582 0.0199668 0)
(11.2527 0.0186097 0)
(11.2476 0.0173486 0)
(11.2429 0.0161762 0)
(11.2384 0.0150856 0)
(11.2343 0.0140706 0)
(11.2305 0.0131258 0)
(11.2269 0.0122461 0)
(11.2235 0.0114267 0)
(11.2204 0.0106631 0)
(11.2175 0.00995136 0)
(11.2147 0.00928803 0)
(11.2122 0.00866966 0)
(11.2098 0.00809293 0)
(11.2076 0.0075549 0)
(11.2055 0.00705309 0)
(11.2036 0.00658507 0)
(11.2018 0.00614836 0)
(11.2001 0.00574069 0)
(11.1986 0.00536024 0)
(11.1971 0.00500531 0)
(11.1957 0.00467407 0)
(11.1945 0.00436473 0)
(11.1933 0.00407588 0)
(11.1922 0.00380634 0)
(11.1911 0.00355481 0)
(11.1902 0.00331989 0)
(11.1893 0.00310041 0)
(11.1884 0.00289554 0)
(11.1876 0.00270437 0)
(11.1869 0.00252587 0)
(11.1862 0.00235904 0)
(11.1856 0.00220324 0)
(11.185 0.00205785 0)
(11.1844 0.00192217 0)
(11.1839 0.00179531 0)
(11.1834 0.0016768 0)
(11.1829 0.00156614 0)
(11.1825 0.00146298 0)
(11.1821 0.00136643 0)
(11.1817 0.00127633 0)
(11.1814 0.00119201 0)
(11.1811 0.00111363 0)
(11.1808 0.00103997 0)
(11.1805 0.000971657 0)
(11.1802 0.00090715 0)
(11.18 0.000847952 0)
(11.1797 0.000791229 0)
(11.1795 0.000740144 0)
(11.1793 0.000689905 0)
(11.1791 0.000646486 0)
(11.179 0.000601172 0)
(11.1788 0.00056551 0)
(11.1786 0.000523392 0)
(11.1785 0.000496537 0)
(11.1783 0.000455408 0)
(11.1783 0.000440078 0)
(11.1781 0.000398771 0)
(10.0073 0.118147 0)
(10.1785 0.308609 0)
(10.4622 0.414344 0)
(10.799 0.451936 0)
(11.1327 0.455024 0)
(11.4378 0.440803 0)
(11.7089 0.4144 0)
(11.9457 0.379737 0)
(12.1486 0.341957 0)
(12.3197 0.305369 0)
(12.4627 0.27222 0)
(12.5823 0.243139 0)
(12.6831 0.217979 0)
(12.7689 0.196337 0)
(12.8426 0.177738 0)
(12.9065 0.161696 0)
(12.9624 0.147756 0)
(13.0118 0.135523 0)
(13.0556 0.124679 0)
(13.0948 0.114975 0)
(13.13 0.106222 0)
(13.1618 0.0982751 0)
(13.1905 0.0910241 0)
(13.2166 0.0843818 0)
(13.2403 0.078279 0)
(13.262 0.0726598 0)
(13.2818 0.0674771 0)
(13.2999 0.0626912 0)
(13.3165 0.0582673 0)
(13.3318 0.0541748 0)
(13.3459 0.0503862 0)
(13.3589 0.0468768 0)
(13.3708 0.0436242 0)
(13.3819 0.0406082 0)
(13.3921 0.0378101 0)
(13.4016 0.035213 0)
(13.4103 0.0328014 0)
(13.4185 0.0305612 0)
(13.426 0.0284794 0)
(13.4331 0.026544 0)
(13.4396 0.0247441 0)
(13.4456 0.0230698 0)
(13.4513 0.0215118 0)
(13.4565 0.0200616 0)
(13.4614 0.0187113 0)
(13.4659 0.017454 0)
(13.4702 0.0162828 0)
(13.4741 0.0151917 0)
(13.4778 0.0141748 0)
(13.4812 0.013227 0)
(13.4844 0.0123438 0)
(13.4874 0.0115203 0)
(13.4902 0.0107522 0)
(13.4928 0.010036 0)
(13.4952 0.0093681 0)
(13.4975 0.0087452 0)
(13.4996 0.00816395 0)
(13.5016 0.00762153 0)
(13.5034 0.00711556 0)
(13.5051 0.00664359 0)
(13.5067 0.00620304 0)
(13.5082 0.0057917 0)
(13.5096 0.00540783 0)
(13.5109 0.00504973 0)
(13.5122 0.00471547 0)
(13.5133 0.00440324 0)
(13.5144 0.0041117 0)
(13.5154 0.00383972 0)
(13.5163 0.00358591 0)
(13.5172 0.00334878 0)
(13.518 0.00312726 0)
(13.5187 0.00292053 0)
(13.5194 0.00272768 0)
(13.5201 0.00254753 0)
(13.5207 0.00237917 0)
(13.5213 0.00222195 0)
(13.5218 0.00207535 0)
(13.5223 0.00193842 0)
(13.5228 0.00181045 0)
(13.5232 0.0016908 0)
(13.5236 0.00157933 0)
(13.524 0.00147514 0)
(13.5244 0.00137792 0)
(13.5247 0.00128673 0)
(13.525 0.00120211 0)
(13.5253 0.00112255 0)
(13.5256 0.00104895 0)
(13.5258 0.00097906 0)
(13.5261 0.000915383 0)
(13.5263 0.000853826 0)
(13.5265 0.000799137 0)
(13.5267 0.0007442 0)
(13.5268 0.000698224 0)
(13.527 0.00064811 0)
(13.5272 0.000611065 0)
(13.5273 0.000563601 0)
(13.5274 0.000536731 0)
(13.5276 0.000489109 0)
(13.5277 0.000474359 0)
(13.5279 0.00042334 0)
(10.0059 0.0346292 0)
(10.1369 0.0936602 0)
(10.3703 0.130468 0)
(10.6742 0.145633 0)
(11.0003 0.148545 0)
(11.3164 0.14565 0)
(11.6107 0.138883 0)
(11.8807 0.129192 0)
(12.1252 0.118065 0)
(12.3439 0.106964 0)
(12.5381 0.0967274 0)
(12.7103 0.0876282 0)
(12.864 0.0796597 0)
(13.0021 0.0727221 0)
(13.1271 0.0666881 0)
(13.2409 0.0614192 0)
(13.345 0.0567807 0)
(13.4407 0.0526532 0)
(13.5289 0.0489393 0)
(13.6105 0.0455639 0)
(13.686 0.0424707 0)
(13.756 0.0396177 0)
(13.821 0.036974 0)
(13.8814 0.0345158 0)
(13.9375 0.0322252 0)
(13.9897 0.0300877 0)
(14.0383 0.0280916 0)
(14.0835 0.0262268 0)
(14.1255 0.0244845 0)
(14.1646 0.0228568 0)
(14.2011 0.0213362 0)
(14.235 0.0199158 0)
(14.2667 0.0185894 0)
(14.2961 0.0173509 0)
(14.3236 0.0161947 0)
(14.3492 0.0151153 0)
(14.373 0.0141077 0)
(14.3952 0.0131674 0)
(14.416 0.0122899 0)
(14.4353 0.0114709 0)
(14.4533 0.0107066 0)
(14.4701 0.00999338 0)
(14.4858 0.00932793 0)
(14.5005 0.00870697 0)
(14.5141 0.00812741 0)
(14.5268 0.00758657 0)
(14.5387 0.007082 0)
(14.5498 0.00661123 0)
(14.5602 0.00617178 0)
(14.5698 0.00576157 0)
(14.5788 0.00537886 0)
(14.5873 0.00502186 0)
(14.5951 0.0046886 0)
(14.6024 0.00437736 0)
(14.6093 0.00408689 0)
(14.6157 0.00381601 0)
(14.6217 0.00356319 0)
(14.6272 0.00332696 0)
(14.6324 0.00310636 0)
(14.6373 0.00290064 0)
(14.6418 0.00270875 0)
(14.646 0.00252941 0)
(14.65 0.00236178 0)
(14.6537 0.00220541 0)
(14.6571 0.00205966 0)
(14.6604 0.0019235 0)
(14.6634 0.00179611 0)
(14.6662 0.00167717 0)
(14.6688 0.00156638 0)
(14.6712 0.00146299 0)
(14.6735 0.00136623 0)
(14.6757 0.00127576 0)
(14.6777 0.00119149 0)
(14.6795 0.00111295 0)
(14.6813 0.0010395 0)
(14.6829 0.000970691 0)
(14.6844 0.00090655 0)
(14.6858 0.000846841 0)
(14.6871 0.000791072 0)
(14.6884 0.000738728 0)
(14.6895 0.000689912 0)
(14.6906 0.000644434 0)
(14.6916 0.000602093 0)
(14.6926 0.00056221 0)
(14.6934 0.000525163 0)
(14.6943 0.000490396 0)
(14.695 0.00045836 0)
(14.6957 0.000427746 0)
(14.6964 0.000399952 0)
(14.697 0.000372972 0)
(14.6976 0.000349221 0)
(14.6982 0.00032502 0)
(14.6987 0.000305147 0)
(14.6992 0.000282996 0)
(14.6996 0.000267117 0)
(14.7 0.000245995 0)
(14.7003 0.000234653 0)
(14.7008 0.000213323 0)
(14.701 0.00020712 0)
(14.7016 0.000183972 0)
(10.0059 -0.0346292 0)
(10.1369 -0.0936602 0)
(10.3703 -0.130468 0)
(10.6742 -0.145633 0)
(11.0003 -0.148545 0)
(11.3164 -0.14565 0)
(11.6107 -0.138883 0)
(11.8807 -0.129192 0)
(12.1252 -0.118065 0)
(12.3439 -0.106964 0)
(12.5381 -0.0967274 0)
(12.7103 -0.0876282 0)
(12.864 -0.0796598 0)
(13.0021 -0.0727222 0)
(13.1271 -0.0666881 0)
(13.2409 -0.0614193 0)
(13.345 -0.0567808 0)
(13.4407 -0.0526532 0)
(13.5289 -0.0489394 0)
(13.6105 -0.045564 0)
(13.686 -0.0424707 0)
(13.756 -0.0396178 0)
(13.821 -0.036974 0)
(13.8814 -0.0345158 0)
(13.9375 -0.0322252 0)
(13.9897 -0.0300877 0)
(14.0383 -0.0280915 0)
(14.0835 -0.0262267 0)
(14.1255 -0.0244845 0)
(14.1646 -0.0228567 0)
(14.2011 -0.021336 0)
(14.235 -0.0199157 0)
(14.2667 -0.0185893 0)
(14.2961 -0.0173508 0)
(14.3236 -0.0161945 0)
(14.3492 -0.0151151 0)
(14.373 -0.0141077 0)
(14.3952 -0.0131674 0)
(14.416 -0.0122899 0)
(14.4353 -0.0114709 0)
(14.4533 -0.0107067 0)
(14.4701 -0.00999359 0)
(14.4858 -0.00932814 0)
(14.5005 -0.00870708 0)
(14.5141 -0.00812754 0)
(14.5268 -0.00758686 0)
(14.5387 -0.00708232 0)
(14.5498 -0.00661137 0)
(14.5602 -0.00617181 0)
(14.5698 -0.00576173 0)
(14.5788 -0.00537911 0)
(14.5873 -0.00502191 0)
(14.5951 -0.0046884 0)
(14.6024 -0.0043772 0)
(14.6093 -0.00408693 0)
(14.6157 -0.00381596 0)
(14.6217 -0.00356283 0)
(14.6272 -0.00332656 0)
(14.6324 -0.00310622 0)
(14.6373 -0.00290059 0)
(14.6418 -0.00270845 0)
(14.646 -0.00252898 0)
(14.65 -0.0023616 0)
(14.6537 -0.00220551 0)
(14.6571 -0.00205965 0)
(14.6604 -0.00192328 0)
(14.6634 -0.00179604 0)
(14.6662 -0.00167744 0)
(14.6688 -0.00156669 0)
(14.6712 -0.00146305 0)
(14.6735 -0.00136625 0)
(14.6757 -0.00127605 0)
(14.6777 -0.0011919 0)
(14.6795 -0.00111314 0)
(14.6813 -0.00103947 0)
(14.6829 -0.000970802 0)
(14.6844 -0.000906836 0)
(14.6858 -0.000846977 0)
(14.6871 -0.000790949 0)
(14.6884 -0.000738644 0)
(14.6895 -0.000690024 0)
(14.6906 -0.00064449 0)
(14.6916 -0.000601938 0)
(14.6926 -0.000562059 0)
(14.6934 -0.000525168 0)
(14.6943 -0.000490378 0)
(14.695 -0.000458217 0)
(14.6957 -0.000427631 0)
(14.6964 -0.000399927 0)
(14.697 -0.000372935 0)
(14.6976 -0.000349176 0)
(14.6982 -0.00032502 0)
(14.6987 -0.000305158 0)
(14.6992 -0.000282973 0)
(14.6996 -0.000267107 0)
(14.7 -0.000245968 0)
(14.7003 -0.000234613 0)
(14.7008 -0.000213299 0)
(14.701 -0.000207122 0)
(14.7016 -0.000184061 0)
(10.0073 -0.118147 0)
(10.1785 -0.308609 0)
(10.4622 -0.414344 0)
(10.799 -0.451936 0)
(11.1327 -0.455023 0)
(11.4378 -0.440803 0)
(11.7089 -0.4144 0)
(11.9457 -0.379737 0)
(12.1486 -0.341957 0)
(12.3197 -0.305369 0)
(12.4627 -0.27222 0)
(12.5823 -0.243139 0)
(12.6831 -0.217979 0)
(12.7689 -0.196337 0)
(12.8426 -0.177738 0)
(12.9065 -0.161697 0)
(12.9624 -0.147756 0)
(13.0118 -0.135523 0)
(13.0556 -0.124679 0)
(13.0948 -0.114975 0)
(13.13 -0.106222 0)
(13.1618 -0.0982751 0)
(13.1905 -0.0910241 0)
(13.2166 -0.0843818 0)
(13.2403 -0.078279 0)
(13.262 -0.0726597 0)
(13.2818 -0.0674771 0)
(13.2999 -0.0626911 0)
(13.3165 -0.0582672 0)
(13.3318 -0.0541747 0)
(13.3459 -0.0503861 0)
(13.3589 -0.0468767 0)
(13.3708 -0.0436241 0)
(13.3819 -0.0406081 0)
(13.3921 -0.03781 0)
(13.4016 -0.0352129 0)
(13.4103 -0.0328013 0)
(13.4185 -0.0305612 0)
(13.426 -0.0284794 0)
(13.4331 -0.026544 0)
(13.4396 -0.0247442 0)
(13.4456 -0.0230699 0)
(13.4513 -0.021512 0)
(13.4565 -0.0200618 0)
(13.4614 -0.0187115 0)
(13.4659 -0.0174541 0)
(13.4702 -0.016283 0)
(13.4741 -0.0151919 0)
(13.4778 -0.014175 0)
(13.4812 -0.0132272 0)
(13.4844 -0.0123438 0)
(13.4874 -0.0115203 0)
(13.4902 -0.0107523 0)
(13.4928 -0.0100359 0)
(13.4952 -0.00936793 0)
(13.4975 -0.00874498 0)
(13.4996 -0.0081638 0)
(13.5016 -0.00762141 0)
(13.5034 -0.00711534 0)
(13.5051 -0.00664329 0)
(13.5067 -0.00620283 0)
(13.5082 -0.0057916 0)
(13.5096 -0.00540771 0)
(13.5109 -0.00504954 0)
(13.5122 -0.00471535 0)
(13.5133 -0.00440328 0)
(13.5144 -0.0041118 0)
(13.5154 -0.00383976 0)
(13.5163 -0.00358595 0)
(13.5172 -0.00334895 0)
(13.518 -0.00312751 0)
(13.5187 -0.00292072 0)
(13.5194 -0.00272779 0)
(13.5201 -0.00254767 0)
(13.5207 -0.00237938 0)
(13.5213 -0.00222212 0)
(13.5218 -0.00207539 0)
(13.5223 -0.00193843 0)
(13.5228 -0.00181052 0)
(13.5232 -0.00169087 0)
(13.5236 -0.00157931 0)
(13.524 -0.00147505 0)
(13.5244 -0.00137786 0)
(13.5247 -0.00128671 0)
(13.525 -0.00120205 0)
(13.5253 -0.00112244 0)
(13.5256 -0.00104886 0)
(13.5258 -0.000979012 0)
(13.5261 -0.00091534 0)
(13.5263 -0.000853788 0)
(13.5265 -0.000799114 0)
(13.5267 -0.00074418 0)
(13.5268 -0.000698214 0)
(13.527 -0.000648105 0)
(13.5272 -0.000611061 0)
(13.5273 -0.000563572 0)
(13.5274 -0.00053671 0)
(13.5276 -0.000489115 0)
(13.5277 -0.000474386 0)
(13.5279 -0.000423418 0)
(10.0142 -0.268249 0)
(10.2913 -0.627914 0)
(10.6543 -0.777366 0)
(10.9896 -0.805972 0)
(11.2531 -0.782852 0)
(11.4505 -0.731539 0)
(11.5949 -0.661113 0)
(11.6943 -0.581621 0)
(11.7554 -0.502968 0)
(11.7857 -0.431507 0)
(11.7936 -0.369728 0)
(11.7859 -0.317716 0)
(11.7683 -0.274518 0)
(11.7445 -0.238868 0)
(11.7173 -0.209476 0)
(11.6884 -0.185158 0)
(11.6592 -0.164881 0)
(11.6303 -0.147795 0)
(11.6023 -0.13323 0)
(11.5754 -0.120671 0)
(11.5498 -0.10973 0)
(11.5256 -0.100111 0)
(11.5027 -0.0915875 0)
(11.4812 -0.083986 0)
(11.4611 -0.0771695 0)
(11.4421 -0.0710289 0)
(11.4244 -0.0654759 0)
(11.4078 -0.0604379 0)
(11.3923 -0.0558542 0)
(11.3779 -0.0516734 0)
(11.3644 -0.0478515 0)
(11.3517 -0.0443507 0)
(11.34 -0.0411381 0)
(11.329 -0.0381851 0)
(11.3187 -0.0354665 0)
(11.3092 -0.0329603 0)
(11.3003 -0.0306468 0)
(11.292 -0.0285089 0)
(11.2842 -0.0265311 0)
(11.277 -0.0246998 0)
(11.2703 -0.0230024 0)
(11.264 -0.021428 0)
(11.2582 -0.0199669 0)
(11.2527 -0.0186099 0)
(11.2476 -0.0173488 0)
(11.2429 -0.0161762 0)
(11.2384 -0.0150856 0)
(11.2343 -0.0140708 0)
(11.2305 -0.013126 0)
(11.2269 -0.0122462 0)
(11.2235 -0.0114266 0)
(11.2204 -0.010663 0)
(11.2175 -0.0099515 0)
(11.2147 -0.00928807 0)
(11.2122 -0.00866944 0)
(11.2098 -0.00809268 0)
(11.2076 -0.00755488 0)
(11.2055 -0.00705312 0)
(11.2036 -0.00658487 0)
(11.2018 -0.00614803 0)
(11.2001 -0.00574057 0)
(11.1986 -0.00536033 0)
(11.1971 -0.00500527 0)
(11.1957 -0.00467382 0)
(11.1945 -0.0043646 0)
(11.1933 -0.00407604 0)
(11.1922 -0.00380651 0)
(11.1911 -0.00355476 0)
(11.1902 -0.00331981 0)
(11.1893 -0.00310057 0)
(11.1884 -0.00289582 0)
(11.1876 -0.00270448 0)
(11.1869 -0.00252582 0)
(11.1862 -0.00235911 0)
(11.1856 -0.00220348 0)
(11.185 -0.00205799 0)
(11.1844 -0.00192209 0)
(11.1839 -0.00179524 0)
(11.1834 -0.0016769 0)
(11.1829 -0.00156624 0)
(11.1825 -0.00146289 0)
(11.1821 -0.0013663 0)
(11.1817 -0.00127633 0)
(11.1814 -0.00119204 0)
(11.1811 -0.00111357 0)
(11.1808 -0.00103988 0)
(11.1805 -0.000971635 0)
(11.1802 -0.000907135 0)
(11.18 -0.000847923 0)
(11.1797 -0.000791227 0)
(11.1795 -0.000740137 0)
(11.1793 -0.00068987 0)
(11.1791 -0.000646478 0)
(11.179 -0.000601195 0)
(11.1788 -0.000565525 0)
(11.1786 -0.00052339 0)
(11.1785 -0.000496542 0)
(11.1783 -0.000455426 0)
(11.1783 -0.000440097 0)
(11.1781 -0.000398811 0)
(10.0166 -0.538194 0)
(10.3598 -1.01284 0)
(10.5972 -1.10737 0)
(10.6289 -1.05922 0)
(10.5156 -0.962287 0)
(10.3405 -0.839341 0)
(10.1428 -0.703271 0)
(9.93607 -0.569813 0)
(9.72926 -0.451075 0)
(9.53107 -0.352368 0)
(9.34795 -0.274017 0)
(9.1829 -0.213872 0)
(9.03624 -0.168845 0)
(8.90681 -0.135697 0)
(8.79282 -0.111477 0)
(8.69232 -0.0937366 0)
(8.60344 -0.0805693 0)
(8.52447 -0.0705713 0)
(8.45392 -0.0627524 0)
(8.39058 -0.0564383 0)
(8.33341 -0.0511809 0)
(8.28159 -0.0466867 0)
(8.23442 -0.0427642 0)
(8.19135 -0.0392874 0)
(8.1519 -0.036172 0)
(8.11568 -0.0333597 0)
(8.08235 -0.030808 0)
(8.05164 -0.0284847 0)
(8.0233 -0.0263637 0)
(7.9971 -0.0244234 0)
(7.97286 -0.0226452 0)
(7.95041 -0.0210129 0)
(7.9296 -0.0195122 0)
(7.91029 -0.0181306 0)
(7.89236 -0.0168568 0)
(7.87571 -0.0156809 0)
(7.86023 -0.0145941 0)
(7.84584 -0.0135884 0)
(7.83245 -0.0126568 0)
(7.81999 -0.0117932 0)
(7.80839 -0.0109917 0)
(7.79758 -0.0102474 0)
(7.78751 -0.00955578 0)
(7.77813 -0.00891272 0)
(7.76939 -0.00831441 0)
(7.76124 -0.00775746 0)
(7.75364 -0.00723888 0)
(7.74655 -0.00675586 0)
(7.73994 -0.00630576 0)
(7.73377 -0.00588614 0)
(7.72802 -0.0054949 0)
(7.72265 -0.00513012 0)
(7.71764 -0.00478992 0)
(7.71296 -0.00447247 0)
(7.7086 -0.00417621 0)
(7.70452 -0.0038998 0)
(7.70072 -0.00364193 0)
(7.69717 -0.00340118 0)
(7.69386 -0.00317636 0)
(7.69076 -0.00296648 0)
(7.68788 -0.00277064 0)
(7.68518 -0.0025878 0)
(7.68266 -0.00241698 0)
(7.68031 -0.00225742 0)
(7.67811 -0.00210851 0)
(7.67606 -0.00196952 0)
(7.67415 -0.00183964 0)
(7.67236 -0.00171826 0)
(7.67069 -0.00160494 0)
(7.66913 -0.00149918 0)
(7.66768 -0.00140041 0)
(7.66632 -0.00130805 0)
(7.66504 -0.00122177 0)
(7.66386 -0.00114127 0)
(7.66275 -0.00106612 0)
(7.66172 -0.00099584 0)
(7.66075 -0.000930156 0)
(7.65985 -0.000868839 0)
(7.659 -0.000811652 0)
(7.65822 -0.000758167 0)
(7.65748 -0.000708187 0)
(7.65679 -0.000661465 0)
(7.65615 -0.000617948 0)
(7.65555 -0.000577193 0)
(7.65499 -0.000539217 0)
(7.65447 -0.000503573 0)
(7.65398 -0.00047052 0)
(7.65352 -0.000439352 0)
(7.6531 -0.000410631 0)
(7.6527 -0.000383293 0)
(7.65233 -0.000358405 0)
(7.65198 -0.000334332 0)
(7.65166 -0.000312963 0)
(7.65135 -0.000291663 0)
(7.65107 -0.000273564 0)
(7.6508 -0.000254637 0)
(7.65057 -0.000239964 0)
(7.65031 -0.000223626 0)
(7.65015 -0.000214 0)
(7.64983 -0.000204128 0)
(9.18908 -0.358219 0)
(8.62714 -0.621956 0)
(7.8706 -0.625101 0)
(6.9536 -0.545504 0)
(6.10897 -0.445317 0)
(5.44116 -0.34016 0)
(4.9343 -0.241875 0)
(4.54794 -0.161442 0)
(4.25446 -0.102658 0)
(4.03473 -0.0630415 0)
(3.87158 -0.0379763 0)
(3.74962 -0.0231034 0)
(3.65662 -0.0149302 0)
(3.58363 -0.0108512 0)
(3.52443 -0.00906073 0)
(3.47482 -0.00841052 0)
(3.43203 -0.00823724 0)
(3.39427 -0.00819311 0)
(3.36038 -0.00811852 0)
(3.32961 -0.00795801 0)
(3.30148 -0.00770811 0)
(3.27564 -0.00738709 0)
(3.25184 -0.00701889 0)
(3.22989 -0.00662565 0)
(3.20962 -0.00622499 0)
(3.19088 -0.00582957 0)
(3.17354 -0.00544771 0)
(3.1575 -0.00508434 0)
(3.14264 -0.00474191 0)
(3.12886 -0.00442124 0)
(3.11608 -0.00412209 0)
(3.10421 -0.00384361 0)
(3.09319 -0.00358464 0)
(3.08294 -0.0033439 0)
(3.07342 -0.00312007 0)
(3.06455 -0.00291188 0)
(3.0563 -0.00271815 0)
(3.04861 -0.00253778 0)
(3.04145 -0.00236976 0)
(3.03478 -0.00221316 0)
(3.02856 -0.00206715 0)
(3.02276 -0.00193095 0)
(3.01735 -0.00180389 0)
(3.0123 -0.00168529 0)
(3.00759 -0.00157457 0)
(3.0032 -0.00147118 0)
(2.9991 -0.00137463 0)
(2.99527 -0.00128447 0)
(2.9917 -0.00120023 0)
(2.98836 -0.00112152 0)
(2.98525 -0.00104798 0)
(2.98234 -0.000979288 0)
(2.97962 -0.000915101 0)
(2.97709 -0.000855102 0)
(2.97472 -0.000799028 0)
(2.97251 -0.000746646 0)
(2.97044 -0.000697706 0)
(2.96851 -0.000651952 0)
(2.96671 -0.000609177 0)
(2.96503 -0.000569214 0)
(2.96346 -0.000531887 0)
(2.96199 -0.000496997 0)
(2.96062 -0.000464368 0)
(2.95934 -0.000433874 0)
(2.95814 -0.0004054 0)
(2.95702 -0.000378798 0)
(2.95598 -0.000353917 0)
(2.955 -0.000330653 0)
(2.95409 -0.000308929 0)
(2.95324 -0.000288647 0)
(2.95245 -0.000269683 0)
(2.9517 -0.000251944 0)
(2.95101 -0.000235374 0)
(2.95036 -0.00021991 0)
(2.94976 -0.000205464 0)
(2.94919 -0.000191945 0)
(2.94866 -0.000179312 0)
(2.94817 -0.000167522 0)
(2.94771 -0.00015652 0)
(2.94728 -0.000146218 0)
(2.94688 -0.000136593 0)
(2.9465 -0.000127597 0)
(2.94615 -0.000119219 0)
(2.94582 -0.000111362 0)
(2.94552 -0.000104045 0)
(2.94523 -9.71726e-05 0)
(2.94496 -9.08079e-05 0)
(2.94471 -8.47958e-05 0)
(2.94448 -7.92646e-05 0)
(2.94426 -7.3989e-05 0)
(2.94406 -6.9192e-05 0)
(2.94387 -6.4562e-05 0)
(2.94369 -6.04304e-05 0)
(2.94353 -5.63966e-05 0)
(2.94337 -5.28433e-05 0)
(2.94323 -4.9531e-05 0)
(2.94309 -4.65372e-05 0)
(2.94296 -4.47929e-05 0)
(2.94285 -4.32037e-05 0)
(2.94267 -4.74411e-05 0)
)
;

boundaryField
{
    inlet
    {
        type            fixedValue;
        value           uniform (10 0 0);
    }
    outlet
    {
        type            pressureInletOutletVelocity;
        value           nonuniform List<vector> 10((2.94267 4.74357e-05 0) (7.64983 0.000204116 0) (11.1781 0.000398771 0) (13.5279 0.00042334 0) (14.7016 0.000183972 0) (14.7016 -0.000184061 0) (13.5279 -0.000423418 0) (11.1781 -0.000398811 0) (7.64983 -0.000204128 0) (2.94267 -4.74411e-05 0));
    }
    top
    {
        type            noSlip;
    }
    bottom
    {
        type            noSlip;
    }
    frontAndBack
    {
        type            empty;
    }
}


// ************************************************************************* //
