/*--------------------------------*- C++ -*----------------------------------*\
| =========                 |                                                 |
| \\      /  F ield         | OpenFOAM: The Open Source CFD Toolbox           |
|  \\    /   O peration     | Version:  v2012                                 |
|   \\  /    A nd           | Website:  www.openfoam.com                      |
|    \\/     M anipulation  |                                                 |
\*---------------------------------------------------------------------------*/
FoamFile
{
    version     2.0;
    format      ascii;
    class       surfaceScalarField;
    location    "0.75";
    object      phi;
}
// * * * * * * * * * * * * * * * * * * * * * * * * * * * * * * * * * * * * * //

dimensions      [0 3 -1 0 0 0 0];
oriented        oriented;


internalField   nonuniform List<scalar> 
1890
(
0.0093062
0.000693804
0.00828439
0.0010218
0.0073299
0.000954494
0.00648696
0.000842943
0.00576958
0.000717371
0.00518986
0.000579724
0.00473817
0.000451692
0.00439519
0.000342978
0.00413903
0.000256163
0.00394911
0.00018992
0.00380789
0.000141219
0.00370138
0.00010651
0.00361906
8.23202e-05
0.00355341
6.56462e-05
0.00349928
5.41273e-05
0.00345324
4.60401e-05
0.00341305
4.01943e-05
0.00337726
3.57928e-05
0.00334494
3.23188e-05
0.00331549
2.94493e-05
0.0032885
2.69886e-05
0.00326368
2.48203e-05
0.0032408
2.28755e-05
0.00321969
2.11124e-05
0.00320019
1.95047e-05
0.00318215
1.8034e-05
0.00316547
1.66867e-05
0.00315002
1.54514e-05
0.0031357
1.43179e-05
0.00312242
1.32771e-05
0.0031101
1.23206e-05
0.00309866
1.14407e-05
0.00308803
1.06304e-05
0.00307815
9.88337e-06
0.00306895
9.19375e-06
0.0030604
8.55647e-06
0.00305243
7.96692e-06
0.00304501
7.42092e-06
0.00303809
6.91474e-06
0.00303165
6.44508e-06
0.00302564
6.00902e-06
0.00302003
5.60384e-06
0.00301481
5.22705e-06
0.00300993
4.87648e-06
0.00300538
4.55021e-06
0.00300113
4.24643e-06
0.00299717
3.9634e-06
0.00299347
3.69959e-06
0.00299002
3.45369e-06
0.00298679
3.22448e-06
0.00298378
3.01069e-06
0.00298097
2.8112e-06
0.00297835
2.62506e-06
0.0029759
2.45144e-06
0.00297361
2.28941e-06
0.00297147
2.13811e-06
0.00296947
1.99684e-06
0.00296761
1.865e-06
0.00296586
1.74196e-06
0.00296424
1.62703e-06
0.00296272
1.51964e-06
0.0029613
1.41939e-06
0.00295997
1.32584e-06
0.00295873
1.23845e-06
0.00295758
1.15676e-06
0.0029565
1.08048e-06
0.00295549
1.00929e-06
0.00295454
9.42813e-07
0.00295366
8.80666e-07
0.00295284
8.22597e-07
0.00295207
7.68406e-07
0.00295135
7.1782e-07
0.00295068
6.70538e-07
0.00295006
6.26336e-07
0.00294947
5.85077e-07
0.00294893
5.46568e-07
0.00294842
5.10592e-07
0.00294794
4.76943e-07
0.00294749
4.45528e-07
0.00294708
4.16195e-07
0.00294669
3.88825e-07
0.00294632
3.63195e-07
0.00294599
3.39287e-07
0.00294567
3.16909e-07
0.00294537
2.96093e-07
0.0029451
2.76527e-07
0.00294484
2.58371e-07
0.0029446
2.4124e-07
0.00294437
2.25479e-07
0.00294416
2.10456e-07
0.00294396
1.96798e-07
0.00294378
1.83569e-07
0.00294361
1.71821e-07
0.00294345
1.60168e-07
0.0029433
1.50142e-07
0.00294316
1.40045e-07
0.00294303
1.31659e-07
0.0029429
1.24123e-07
0.00294278
1.18253e-07
1.20778e-07
0.0103395
0.000354279
0.0105708
0.000790573
0.0106063
0.000918948
0.0105476
0.000901671
0.0104223
0.000842626
0.0102444
0.000757686
0.0100394
0.000656627
0.00982874
0.000553656
0.00962514
0.000459771
0.0094353
0.000379754
0.00926243
0.000314093
0.00910753
0.000261404
0.00897015
0.000219699
0.0088489
0.000186898
0.00874197
0.000161058
0.00864749
0.000140519
0.00856369
0.000123993
0.00848901
0.000110476
0.00842211
9.92199e-05
0.00836188
8.96814e-05
0.0083074
8.14707e-05
0.00825791
7.43079e-05
0.00821279
6.79905e-05
0.00817154
6.237e-05
0.0081337
5.73351e-05
0.00809894
5.28002e-05
0.00806693
4.86983e-05
0.0080374
4.4975e-05
0.00801014
4.15854e-05
0.00798492
3.84919e-05
0.00796158
3.56621e-05
0.00793995
3.30686e-05
0.0079199
3.06871e-05
0.00790128
2.84968e-05
0.007884
2.64792e-05
0.00786793
2.46181e-05
0.007853
2.28992e-05
0.00783911
2.13098e-05
0.00782619
1.98386e-05
0.00781416
1.84755e-05
0.00780296
1.72116e-05
0.00779252
1.60387e-05
0.0077828
1.49495e-05
0.00777374
1.39373e-05
0.00776529
1.29962e-05
0.00775742
1.2121e-05
0.00775007
1.13066e-05
0.00774323
1.05482e-05
0.00773684
9.842e-06
0.00773088
9.1842e-06
0.00772532
8.5713e-06
0.00772013
7.99993e-06
0.00771529
7.46719e-06
0.00771077
6.9705e-06
0.00770655
6.50737e-06
0.00770261
6.07531e-06
0.00769894
5.67213e-06
0.00769551
5.29596e-06
0.0076923
4.94507e-06
0.00768931
4.6176e-06
0.00768652
4.31184e-06
0.00768391
4.02642e-06
0.00768148
3.7601e-06
0.00767921
3.51153e-06
0.00767708
3.27938e-06
0.0076751
3.06257e-06
0.00767325
2.86021e-06
0.00767152
2.67135e-06
0.00766991
2.49496e-06
0.0076684
2.33017e-06
0.00766699
2.17632e-06
0.00766568
2.03273e-06
0.00766445
1.89865e-06
0.0076633
1.77336e-06
0.00766223
1.65635e-06
0.00766123
1.54712e-06
0.00766029
1.44516e-06
0.00765942
1.34985e-06
0.00765861
1.26084e-06
0.00765785
1.17769e-06
0.00765713
1.10014e-06
0.00765647
1.02758e-06
0.00765585
9.59885e-07
0.00765527
8.96497e-07
0.00765473
8.37537e-07
0.00765422
7.82164e-07
0.00765375
7.30803e-07
0.00765331
6.82294e-07
0.0076529
6.37707e-07
0.00765251
5.95131e-07
0.00765215
5.56613e-07
0.00765182
5.18965e-07
0.0076515
4.86066e-07
0.00765121
4.52406e-07
0.00765094
4.25049e-07
0.00765068
3.94292e-07
0.00765044
3.73249e-07
0.00765022
3.44524e-07
0.00765
3.33268e-07
3.04565e-07
0.0101887
0.000165575
0.0105305
0.000448791
0.0108515
0.000597982
0.0111242
0.00062895
0.0113506
0.000616219
0.0115245
0.000583781
0.0116463
0.000534784
0.0117242
0.00047583
0.011768
0.000415927
0.0117866
0.000361114
0.0117871
0.000313617
0.0117751
0.00027346
0.0117549
0.000239897
0.0117298
0.00021199
0.0117021
0.000188773
0.0116732
0.000169334
0.0116443
0.000152893
0.011616
0.000138812
0.0115886
0.000126594
0.0115624
0.000115864
0.0115376
0.000106345
0.0115141
9.7827e-05
0.0114919
9.01534e-05
0.0114711
8.32034e-05
0.0114515
7.68827e-05
0.0114332
7.11156e-05
0.0114161
6.58403e-05
0.0114
6.10049e-05
0.011385
5.65651e-05
0.0113711
5.24824e-05
0.011358
4.8723e-05
0.0113458
4.52573e-05
0.0113344
4.20589e-05
0.0113238
3.91042e-05
0.0113139
3.63721e-05
0.0113047
3.38435e-05
0.0112961
3.15016e-05
0.0112881
2.93309e-05
0.0112806
2.73177e-05
0.0112736
2.54491e-05
0.0112671
2.37139e-05
0.0112611
2.21018e-05
0.0112554
2.06034e-05
0.0112501
1.92099e-05
0.0112452
1.79135e-05
0.0112406
1.67071e-05
0.0112364
1.55841e-05
0.0112324
1.45383e-05
0.0112286
1.3564e-05
0.0112252
1.26563e-05
0.0112219
1.18106e-05
0.0112189
1.10223e-05
0.0112161
1.02873e-05
0.0112135
9.60189e-06
0.011211
8.96285e-06
0.0112087
8.36687e-06
0.0112066
7.8108e-06
0.0112046
7.29195e-06
0.0112027
6.80795e-06
0.011201
6.35643e-06
0.0111994
5.93499e-06
0.0111978
5.54156e-06
0.0111964
5.1744e-06
0.0111951
4.83183e-06
0.0111939
4.51204e-06
0.0111927
4.2134e-06
0.0111916
3.9346e-06
0.0111906
3.67443e-06
0.0111897
3.43157e-06
0.0111888
3.20473e-06
0.011188
2.9929e-06
0.0111872
2.79518e-06
0.0111865
2.61064e-06
0.0111859
2.43827e-06
0.0111853
2.27726e-06
0.0111847
2.12692e-06
0.0111841
1.98662e-06
0.0111836
1.85554e-06
0.0111832
1.73313e-06
0.0111827
1.61873e-06
0.0111823
1.51204e-06
0.0111819
1.41225e-06
0.0111816
1.31921e-06
0.0111812
1.23201e-06
0.0111809
1.15096e-06
0.0111806
1.07477e-06
0.0111803
1.00427e-06
0.0111801
9.37459e-07
0.0111798
8.76358e-07
0.0111796
8.17537e-07
0.0111794
7.65024e-07
0.0111792
7.12667e-07
0.011179
6.68325e-07
0.0111789
6.20767e-07
0.0111787
5.84914e-07
0.0111786
5.40041e-07
0.0111784
5.14029e-07
0.0111783
4.69068e-07
0.0111782
4.55203e-07
4.09023e-07
0.0100972
6.83936e-05
0.010347
0.000199011
0.0106625
0.000282474
0.0109828
0.000308666
0.0112902
0.000308743
0.0115753
0.000298758
0.011829
0.000281013
0.0120479
0.000256988
0.0122333
0.00023052
0.0123892
0.000205146
0.0125203
0.000182562
0.0126308
0.000163
0.0127244
0.000146225
0.0128045
0.000131903
0.0128736
0.000119674
0.0129338
0.000109175
0.0129866
0.000100069
0.0130333
9.20764e-05
0.013075
8.49753e-05
0.0131122
7.85986e-05
0.0131457
7.28223e-05
0.013176
6.7554e-05
0.0132034
6.2724e-05
0.0132284
5.82789e-05
0.0132511
5.4177e-05
0.0132718
5.03845e-05
0.0132908
4.68732e-05
0.0133082
4.36192e-05
0.0133241
4.06014e-05
0.0133388
3.78013e-05
0.0133523
3.52018e-05
0.0133648
3.27875e-05
0.0133763
3.05445e-05
0.0133869
2.846e-05
0.0133968
2.65222e-05
0.0134059
2.47201e-05
0.0134144
2.30437e-05
0.0134222
2.1484e-05
0.0134295
2.00325e-05
0.0134363
1.86813e-05
0.0134426
1.7423e-05
0.0134484
1.62511e-05
0.0134539
1.51597e-05
0.0134589
1.41429e-05
0.0134637
1.31953e-05
0.013468
1.2312e-05
0.0134721
1.14889e-05
0.013476
1.07216e-05
0.0134795
1.00061e-05
0.0134828
9.33874e-06
0.0134859
8.71648e-06
0.0134888
8.1363e-06
0.0134915
7.59502e-06
0.013494
7.08983e-06
0.0134964
6.61855e-06
0.0134986
6.17906e-06
0.0135006
5.76898e-06
0.0135025
5.38607e-06
0.0135043
5.02864e-06
0.0135059
4.69528e-06
0.0135075
4.38423e-06
0.0135089
4.09373e-06
0.0135103
3.82241e-06
0.0135116
3.56929e-06
0.0135127
3.33316e-06
0.0135138
3.11263e-06
0.0135149
2.90657e-06
0.0135158
2.71424e-06
0.0135167
2.53487e-06
0.0135176
2.36739e-06
0.0135183
2.21088e-06
0.0135191
2.06471e-06
0.0135197
1.92836e-06
0.0135204
1.80111e-06
0.013521
1.6822e-06
0.0135215
1.57106e-06
0.0135221
1.46738e-06
0.0135225
1.37062e-06
0.013523
1.28025e-06
0.0135234
1.1957e-06
0.0135238
1.11684e-06
0.0135242
1.04313e-06
0.0135245
9.74458e-07
0.0135248
9.10004e-07
0.0135251
8.50121e-07
0.0135254
7.93777e-07
0.0135257
7.41795e-07
0.0135259
6.92338e-07
0.0135262
6.47323e-07
0.0135264
6.03659e-07
0.0135266
5.65147e-07
0.0135268
5.26097e-07
0.0135269
4.93832e-07
0.0135271
4.58036e-07
0.0135273
4.32385e-07
0.0135274
3.98177e-07
0.0135275
3.80024e-07
0.0135277
3.4495e-07
0.0135278
3.35253e-07
3.00748e-07
0.0100684
-5.15272e-13
0.0102674
-1.98873e-12
0.0105499
-4.19738e-12
0.0108585
-6.83029e-12
0.0111673
-9.23339e-12
0.011466
-1.08464e-11
0.0117471
-1.19534e-11
0.012004
-1.29529e-11
0.0122346
-1.31987e-11
0.0124397
-1.16297e-11
0.0126223
-9.79997e-12
0.0127853
-9.6995e-12
0.0129315
-8.91512e-12
0.0130634
-3.61467e-12
0.0131831
4.47454e-12
0.0132923
7.74264e-12
0.0133923
8.32808e-12
0.0134844
1.72394e-11
0.0135694
3.46047e-11
0.013648
4.08275e-11
0.0137208
3.36098e-11
0.0137883
3.71158e-11
0.0138511
5.65645e-11
0.0139094
6.68428e-11
0.0139635
4.25808e-11
0.0140139
2.27038e-11
0.0140608
3.7021e-11
0.0141044
5.51343e-11
0.014145
2.07419e-11
0.0141828
-3.67739e-11
0.014218
-3.09012e-11
0.0142508
-6.81644e-12
0.0142813
-2.51428e-11
0.0143098
-1.17038e-10
0.0143363
-1.15258e-10
0.014361
-5.83167e-11
0.0143841
-4.50104e-11
0.0144056
-1.34734e-10
0.0144256
-1.73486e-10
0.0144443
-7.88899e-11
0.0144617
-1.36298e-11
0.014478
-5.37409e-11
0.0144931
-1.32533e-10
0.0145073
-4.3352e-11
0.0145205
1.06851e-10
0.0145328
7.2596e-11
0.0145443
3.78476e-12
0.014555
2.88048e-11
0.014565
2.09401e-10
0.0145743
2.20193e-10
0.014583
1.07846e-10
0.0145912
7.74235e-11
0.0145988
2.25414e-10
0.0146059
2.99989e-10
0.0146125
1.4894e-10
0.0146187
4.82577e-11
0.0146244
1.09193e-10
0.0146298
1.96289e-10
0.0146348
7.98704e-11
0.0146395
-8.68343e-11
0.0146439
-8.21437e-11
0.014648
-2.81807e-11
0.0146518
-6.63351e-11
0.0146554
-2.46024e-10
0.0146587
-2.89781e-10
0.0146619
-1.83348e-10
0.0146648
-1.5945e-10
0.0146675
-2.85973e-10
0.01467
-3.4902e-10
0.0146724
-2.26746e-10
0.0146746
-1.37932e-10
0.0146767
-1.8871e-10
0.0146786
-2.05537e-10
0.0146804
-1.12706e-10
0.0146821
-7.29172e-12
0.0146836
4.5698e-11
0.0146851
4.113e-11
0.0146865
8.15548e-11
0.0146878
1.89591e-10
0.0146889
2.32846e-10
0.0146901
1.82711e-10
0.0146911
1.63256e-10
0.0146921
2.18048e-10
0.014693
2.22891e-10
0.0146938
1.65679e-10
0.0146946
1.16136e-10
0.0146954
1.15899e-10
0.0146961
1.12109e-10
0.0146967
7.12959e-11
0.0146973
2.60151e-11
0.0146979
-4.6967e-12
0.0146984
-1.70057e-11
0.0146989
-3.55327e-11
0.0146994
-5.81002e-11
0.0146998
-5.5486e-11
0.0147002
-3.30845e-11
0.0147006
-4.78888e-12
0.0147009
9.36767e-12
0.0147013
3.45427e-11
1.43497e-11
0.0100684
-6.83936e-05
0.0102674
-0.000199011
0.0105499
-0.000282474
0.0108585
-0.000308666
0.0111673
-0.000308743
0.011466
-0.000298758
0.0117471
-0.000281013
0.012004
-0.000256988
0.0122346
-0.00023052
0.0124397
-0.000205146
0.0126223
-0.000182562
0.0127853
-0.000163
0.0129315
-0.000146225
0.0130634
-0.000131903
0.0131831
-0.000119674
0.0132923
-0.000109175
0.0133923
-0.000100069
0.0134844
-9.20764e-05
0.0135694
-8.49752e-05
0.013648
-7.85986e-05
0.0137208
-7.28223e-05
0.0137883
-6.75539e-05
0.0138511
-6.27239e-05
0.0139094
-5.82788e-05
0.0139635
-5.41769e-05
0.0140139
-5.03844e-05
0.0140608
-4.68732e-05
0.0141044
-4.36191e-05
0.014145
-4.06014e-05
0.0141828
-3.78013e-05
0.014218
-3.52018e-05
0.0142508
-3.27875e-05
0.0142813
-3.05446e-05
0.0143098
-2.84602e-05
0.0143363
-2.65224e-05
0.014361
-2.47203e-05
0.0143841
-2.30438e-05
0.0144056
-2.14842e-05
0.0144256
-2.00328e-05
0.0144443
-1.86815e-05
0.0144617
-1.7423e-05
0.014478
-1.62512e-05
0.0144931
-1.51599e-05
0.0145073
-1.4143e-05
0.0145205
-1.31952e-05
0.0145328
-1.23119e-05
0.0145443
-1.14888e-05
0.014555
-1.07215e-05
0.014565
-1.00058e-05
0.0145743
-9.33834e-06
0.014583
-8.71618e-06
0.0145912
-8.13606e-06
0.0145988
-7.59464e-06
0.0146059
-7.08935e-06
0.0146125
-6.61818e-06
0.0146187
-6.17887e-06
0.0146244
-5.76877e-06
0.0146298
-5.38576e-06
0.0146348
-5.02845e-06
0.0146395
-4.69533e-06
0.0146439
-4.38439e-06
0.014648
-4.09381e-06
0.0146518
-3.82254e-06
0.0146554
-3.56963e-06
0.0146587
-3.33366e-06
0.0146619
-3.11308e-06
0.0146648
-2.90697e-06
0.0146675
-2.71475e-06
0.01467
-2.53547e-06
0.0146724
-2.36792e-06
0.0146746
-2.21125e-06
0.0146767
-2.06503e-06
0.0146786
-1.92874e-06
0.0146804
-1.80139e-06
0.0146821
-1.68228e-06
0.0146836
-1.57102e-06
0.0146851
-1.46733e-06
0.0146865
-1.37049e-06
0.0146878
-1.27998e-06
0.014689
-1.19532e-06
0.0146901
-1.11645e-06
0.0146911
-1.04277e-06
0.0146921
-9.74077e-07
0.014693
-9.09584e-07
0.0146938
-8.49746e-07
0.0146946
-7.9348e-07
0.0146954
-7.41559e-07
0.0146961
-6.92129e-07
0.0146967
-6.47169e-07
0.0146973
-6.03582e-07
0.0146979
-5.65147e-07
0.0146984
-5.26146e-07
0.0146989
-4.93913e-07
0.0146994
-4.58139e-07
0.0146998
-4.32484e-07
0.0147002
-3.98253e-07
0.0147006
-3.80051e-07
0.0147009
-3.44954e-07
0.0147013
-3.35228e-07
-3.0076e-07
0.0100972
-0.000165575
0.010347
-0.000448791
0.0106625
-0.000597982
0.0109828
-0.00062895
0.0112902
-0.000616219
0.0115753
-0.000583781
0.011829
-0.000534784
0.0120479
-0.000475831
0.0122333
-0.000415927
0.0123892
-0.000361114
0.0125203
-0.000313617
0.0126308
-0.00027346
0.0127244
-0.000239897
0.0128045
-0.00021199
0.0128736
-0.000188773
0.0129338
-0.000169334
0.0129866
-0.000152893
0.0130333
-0.000138812
0.013075
-0.000126594
0.0131122
-0.000115864
0.0131457
-0.000106345
0.013176
-9.7827e-05
0.0132034
-9.01533e-05
0.0132284
-8.32033e-05
0.0132511
-7.68826e-05
0.0132718
-7.11155e-05
0.0132908
-6.58403e-05
0.0133082
-6.10049e-05
0.0133241
-5.6565e-05
0.0133388
-5.24823e-05
0.0133523
-4.87231e-05
0.0133648
-4.52575e-05
0.0133763
-4.2059e-05
0.0133869
-3.91042e-05
0.0133968
-3.63722e-05
0.0134059
-3.38438e-05
0.0134144
-3.15018e-05
0.0134222
-2.9331e-05
0.0134295
-2.73177e-05
0.0134363
-2.54493e-05
0.0134426
-2.37142e-05
0.0134484
-2.21019e-05
0.0134539
-2.06033e-05
0.0134589
-1.921e-05
0.0134637
-1.79138e-05
0.013468
-1.67071e-05
0.0134721
-1.55838e-05
0.013476
-1.4538e-05
0.0134795
-1.3564e-05
0.0134828
-1.26563e-05
0.0134859
-1.18102e-05
0.0134888
-1.10218e-05
0.0134915
-1.02871e-05
0.013494
-9.60183e-06
0.0134964
-8.96249e-06
0.0134986
-8.36633e-06
0.0135006
-7.81058e-06
0.0135025
-7.29205e-06
0.0135043
-6.80791e-06
0.0135059
-6.35615e-06
0.0135075
-5.93492e-06
0.0135089
-5.54189e-06
0.0135103
-5.17476e-06
0.0135116
-4.83194e-06
0.0135127
-4.51218e-06
0.0135138
-4.21388e-06
0.0135149
-3.93521e-06
0.0135158
-3.67481e-06
0.0135167
-3.43181e-06
0.0135176
-3.20515e-06
0.0135183
-2.99346e-06
0.0135191
-2.79555e-06
0.0135197
-2.61076e-06
0.0135204
-2.43838e-06
0.013521
-2.27748e-06
0.0135215
-2.12702e-06
0.0135221
-1.98647e-06
0.0135225
-1.85529e-06
0.013523
-1.73296e-06
0.0135234
-1.61854e-06
0.0135238
-1.51169e-06
0.0135242
-1.4118e-06
0.0135245
-1.31883e-06
0.0135248
-1.23172e-06
0.0135251
-1.15064e-06
0.0135254
-1.07441e-06
0.0135257
-1.00399e-06
0.0135259
-9.37294e-07
0.0135262
-8.76257e-07
0.0135264
-8.17458e-07
0.0135266
-7.64995e-07
0.0135268
-7.12716e-07
0.0135269
-6.68431e-07
0.0135271
-6.20883e-07
0.0135273
-5.85019e-07
0.0135274
-5.40145e-07
0.0135275
-5.14125e-07
0.0135277
-4.6916e-07
0.0135278
-4.55299e-07
-4.09119e-07
0.0101887
-0.000354279
0.0105305
-0.000790573
0.0108515
-0.000918948
0.0111242
-0.000901671
0.0113506
-0.000842626
0.0115245
-0.000757686
0.0116463
-0.000656627
0.0117242
-0.000553656
0.011768
-0.000459771
0.0117866
-0.000379754
0.0117871
-0.000314093
0.0117751
-0.000261404
0.0117549
-0.000219699
0.0117298
-0.000186898
0.0117021
-0.000161058
0.0116732
-0.000140519
0.0116443
-0.000123993
0.011616
-0.000110476
0.0115886
-9.92199e-05
0.0115624
-8.96814e-05
0.0115376
-8.14706e-05
0.0115141
-7.43078e-05
0.0114919
-6.79905e-05
0.0114711
-6.237e-05
0.0114515
-5.7335e-05
0.0114332
-5.28002e-05
0.0114161
-4.86982e-05
0.0114
-4.4975e-05
0.011385
-4.15854e-05
0.0113711
-3.84918e-05
0.011358
-3.56621e-05
0.0113458
-3.30686e-05
0.0113344
-3.06872e-05
0.0113238
-2.84969e-05
0.0113139
-2.64792e-05
0.0113047
-2.46182e-05
0.0112961
-2.28994e-05
0.0112881
-2.13099e-05
0.0112806
-1.98386e-05
0.0112736
-1.84756e-05
0.0112671
-1.72118e-05
0.0112611
-1.60388e-05
0.0112554
-1.49494e-05
0.0112501
-1.39372e-05
0.0112452
-1.29964e-05
0.0112406
-1.21211e-05
0.0112364
-1.13064e-05
0.0112324
-1.0548e-05
0.0112286
-9.84193e-06
0.0112252
-9.18421e-06
0.0112219
-8.5711e-06
0.0112189
-7.99956e-06
0.0112161
-7.46695e-06
0.0112135
-6.97045e-06
0.011211
-6.50724e-06
0.0112087
-6.07498e-06
0.0112066
-5.67187e-06
0.0112046
-5.29598e-06
0.0112027
-4.94514e-06
0.011201
-4.61749e-06
0.0111994
-4.31173e-06
0.0111978
-4.02656e-06
0.0111964
-3.76039e-06
0.0111951
-3.5117e-06
0.0111939
-3.27945e-06
0.0111927
-3.06279e-06
0.0111916
-2.86062e-06
0.0111906
-2.67169e-06
0.0111897
-2.49515e-06
0.0111888
-2.33038e-06
0.011188
-2.17666e-06
0.0111872
-2.03304e-06
0.0111865
-1.89877e-06
0.0111859
-1.77339e-06
0.0111853
-1.65643e-06
0.0111847
-1.54721e-06
0.0111841
-1.4451e-06
0.0111836
-1.34967e-06
0.0111832
-1.26066e-06
0.0111827
-1.17754e-06
0.0111823
-1.09992e-06
0.0111819
-1.02726e-06
0.0111816
-9.59567e-07
0.0111812
-8.96245e-07
0.0111809
-8.37311e-07
0.0111806
-7.81922e-07
0.0111803
-7.30586e-07
0.0111801
-6.82158e-07
0.0111798
-6.37645e-07
0.0111796
-5.95103e-07
0.0111794
-5.5661e-07
0.0111792
-5.19004e-07
0.011179
-4.86148e-07
0.0111789
-4.52509e-07
0.0111787
-4.25155e-07
0.0111786
-3.94412e-07
0.0111784
-3.73383e-07
0.0111783
-3.44676e-07
0.0111782
-3.33432e-07
-3.04685e-07
0.0103395
-0.000693804
0.0105708
-0.0010218
0.0106063
-0.000954494
0.0105476
-0.000842943
0.0104223
-0.000717371
0.0102444
-0.000579724
0.0100394
-0.000451692
0.00982874
-0.000342978
0.00962513
-0.000256163
0.0094353
-0.00018992
0.00926243
-0.000141219
0.00910753
-0.00010651
0.00897015
-8.23202e-05
0.0088489
-6.56462e-05
0.00874197
-5.41273e-05
0.00864749
-4.604e-05
0.00856369
-4.01943e-05
0.00848901
-3.57927e-05
0.00842211
-3.23188e-05
0.00836188
-2.94493e-05
0.0083074
-2.69886e-05
0.00825791
-2.48203e-05
0.00821279
-2.28755e-05
0.00817154
-2.11124e-05
0.0081337
-1.95047e-05
0.00809894
-1.8034e-05
0.00806693
-1.66867e-05
0.0080374
-1.54514e-05
0.00801014
-1.43179e-05
0.00798492
-1.32771e-05
0.00796158
-1.23206e-05
0.00793995
-1.14407e-05
0.0079199
-1.06305e-05
0.00790128
-9.88339e-06
0.007884
-9.19376e-06
0.00786793
-8.5565e-06
0.007853
-7.96698e-06
0.00783911
-7.42097e-06
0.00782619
-6.91475e-06
0.00781416
-6.44509e-06
0.00780296
-6.00907e-06
0.00779252
-5.60389e-06
0.0077828
-5.22705e-06
0.00777374
-4.87646e-06
0.00776529
-4.55022e-06
0.00775742
-4.24645e-06
0.00775007
-3.96337e-06
0.00774323
-3.69952e-06
0.00773684
-3.45364e-06
0.00773088
-3.22445e-06
0.00772532
-3.01064e-06
0.00772013
-2.8111e-06
0.00771529
-2.62497e-06
0.00771077
-2.45138e-06
0.00770655
-2.28937e-06
0.00770261
-2.13804e-06
0.00769894
-1.99677e-06
0.00769551
-1.86498e-06
0.0076923
-1.74197e-06
0.00768931
-1.62703e-06
0.00768652
-1.51964e-06
0.00768391
-1.41943e-06
0.00768148
-1.32592e-06
0.00767921
-1.23853e-06
0.00767708
-1.15684e-06
0.0076751
-1.08056e-06
0.00767325
-1.0094e-06
0.00767152
-9.42931e-07
0.00766991
-8.80765e-07
0.0076684
-8.22685e-07
0.00766699
-7.68501e-07
0.00766568
-7.17908e-07
0.00766445
-6.70597e-07
0.0076633
-6.26364e-07
0.00766223
-5.85091e-07
0.00766123
-5.46572e-07
0.00766029
-5.10574e-07
0.00765942
-4.76894e-07
0.00765861
-4.45459e-07
0.00765785
-4.16115e-07
0.00765713
-3.8873e-07
0.00765647
-3.63083e-07
0.00765585
-3.39166e-07
0.00765527
-3.16792e-07
0.00765473
-2.95987e-07
0.00765422
-2.76435e-07
0.00765375
-2.58296e-07
0.00765331
-2.41184e-07
0.0076529
-2.25445e-07
0.00765251
-2.10442e-07
0.00765215
-1.96799e-07
0.00765182
-1.8358e-07
0.0076515
-1.7184e-07
0.00765121
-1.60199e-07
0.00765094
-1.50191e-07
0.00765068
-1.40119e-07
0.00765044
-1.31749e-07
0.00765022
-1.24226e-07
0.00765
-1.18348e-07
-1.20831e-07
0.0093062
0.00828439
0.0073299
0.00648696
0.00576958
0.00518986
0.00473817
0.00439519
0.00413903
0.00394911
0.00380789
0.00370138
0.00361906
0.00355341
0.00349928
0.00345324
0.00341305
0.00337726
0.00334494
0.00331549
0.0032885
0.00326368
0.00324081
0.00321969
0.00320019
0.00318215
0.00316547
0.00315002
0.0031357
0.00312242
0.0031101
0.00309866
0.00308803
0.00307815
0.00306895
0.0030604
0.00305243
0.00304501
0.00303809
0.00303165
0.00302564
0.00302003
0.00301481
0.00300993
0.00300538
0.00300113
0.00299717
0.00299347
0.00299002
0.00298679
0.00298378
0.00298097
0.00297835
0.0029759
0.00297361
0.00297147
0.00296947
0.00296761
0.00296586
0.00296424
0.00296272
0.0029613
0.00295997
0.00295873
0.00295758
0.0029565
0.00295549
0.00295454
0.00295366
0.00295284
0.00295207
0.00295135
0.00295068
0.00295006
0.00294947
0.00294893
0.00294842
0.00294794
0.00294749
0.00294708
0.00294669
0.00294632
0.00294599
0.00294567
0.00294537
0.0029451
0.00294484
0.0029446
0.00294437
0.00294416
0.00294396
0.00294378
0.00294361
0.00294345
0.0029433
0.00294316
0.00294303
0.0029429
0.00294278
)
;

boundaryField
{
    inlet
    {
        type            calculated;
        value           nonuniform List<scalar> 10(-0.01 -0.01 -0.01 -0.01 -0.01 -0.01 -0.01 -0.01 -0.01 -0.01);
    }
    outlet
    {
        type            calculated;
        value           nonuniform List<scalar> 10(0.00294266 0.00764982 0.0111781 0.0135279 0.0147016 0.0147016 0.0135279 0.0111781 0.00764982 0.00294266);
    }
    top
    {
        type            calculated;
        value           uniform 0;
    }
    bottom
    {
        type            calculated;
        value           uniform 0;
    }
    frontAndBack
    {
        type            empty;
        value           nonuniform List<scalar> 0();
    }
}


// ************************************************************************* //
