/*--------------------------------*- C++ -*----------------------------------*\
| =========                 |                                                 |
| \\      /  F ield         | OpenFOAM: The Open Source CFD Toolbox           |
|  \\    /   O peration     | Version:  v2012                                 |
|   \\  /    A nd           | Website:  www.openfoam.com                      |
|    \\/     M anipulation  |                                                 |
\*---------------------------------------------------------------------------*/
FoamFile
{
    version     2.0;
    format      ascii;
    class       volScalarField;
    location    "0.75";
    object      T;
}
// * * * * * * * * * * * * * * * * * * * * * * * * * * * * * * * * * * * * * //

dimensions      [0 0 0 1 0 0 0];


internalField   nonuniform List<scalar> 
1000
(
300.193
300.401
300.63
300.885
301.166
301.474
301.806
302.159
302.526
302.901
303.278
303.655
304.026
304.39
304.746
305.092
305.429
305.757
306.075
306.384
306.684
306.975
307.258
307.533
307.801
308.061
308.313
308.559
308.799
309.032
309.259
309.481
309.697
309.908
310.114
310.316
310.512
310.705
310.893
311.078
311.258
311.435
311.608
311.779
311.945
312.109
312.27
312.428
312.584
312.737
312.887
313.035
313.18
313.324
313.465
313.604
313.741
313.876
314.01
314.141
314.271
314.399
314.526
314.651
314.774
314.896
315.017
315.136
315.253
315.37
315.485
315.599
315.711
315.823
315.933
316.043
316.151
316.258
316.364
316.469
316.573
316.676
316.779
316.88
316.98
317.08
317.179
317.276
317.373
317.47
317.565
317.66
317.754
317.847
317.94
318.032
318.123
318.213
318.303
318.387
300.016
300.056
300.111
300.178
300.253
300.334
300.416
300.498
300.579
300.66
300.74
300.82
300.902
300.987
301.074
301.165
301.259
301.356
301.456
301.56
301.666
301.775
301.885
301.998
302.111
302.226
302.343
302.46
302.577
302.696
302.814
302.933
303.052
303.171
303.29
303.409
303.528
303.646
303.764
303.881
303.998
304.115
304.231
304.346
304.461
304.575
304.688
304.801
304.912
305.024
305.134
305.244
305.353
305.461
305.568
305.675
305.781
305.886
305.99
306.094
306.197
306.299
306.4
306.501
306.601
306.7
306.799
306.897
306.994
307.09
307.186
307.281
307.376
307.469
307.562
307.655
307.747
307.838
307.929
308.019
308.108
308.197
308.285
308.373
308.46
308.547
308.633
308.718
308.803
308.888
308.972
309.055
309.138
309.221
309.303
309.384
309.465
309.546
309.626
309.703
300.001
300.006
300.016
300.03
300.049
300.07
300.093
300.116
300.139
300.161
300.183
300.204
300.225
300.246
300.268
300.289
300.311
300.334
300.358
300.382
300.407
300.434
300.461
300.488
300.517
300.547
300.578
300.609
300.642
300.675
300.709
300.744
300.78
300.816
300.853
300.891
300.93
300.969
301.009
301.05
301.091
301.133
301.176
301.219
301.262
301.306
301.351
301.396
301.442
301.488
301.534
301.581
301.628
301.676
301.724
301.772
301.82
301.869
301.919
301.968
302.018
302.068
302.118
302.169
302.219
302.27
302.321
302.373
302.424
302.476
302.528
302.58
302.632
302.684
302.736
302.789
302.841
302.894
302.946
302.999
303.052
303.105
303.158
303.211
303.264
303.317
303.37
303.423
303.476
303.529
303.582
303.636
303.689
303.742
303.795
303.848
303.901
303.954
304.007
304.06
300
300
300.001
300.004
300.007
300.011
300.015
300.02
300.026
300.031
300.037
300.042
300.048
300.053
300.059
300.065
300.07
300.076
300.082
300.088
300.094
300.1
300.107
300.113
300.12
300.127
300.134
300.142
300.15
300.157
300.166
300.174
300.183
300.191
300.201
300.21
300.22
300.23
300.24
300.25
300.261
300.272
300.283
300.295
300.307
300.319
300.331
300.344
300.357
300.37
300.384
300.398
300.412
300.427
300.441
300.456
300.472
300.487
300.503
300.52
300.536
300.553
300.57
300.587
300.605
300.623
300.641
300.659
300.678
300.697
300.716
300.735
300.755
300.775
300.795
300.816
300.836
300.857
300.878
300.9
300.921
300.943
300.965
300.988
301.01
301.033
301.056
301.079
301.102
301.126
301.15
301.174
301.198
301.222
301.246
301.271
301.296
301.321
301.346
301.371
300
300
300
300
300.001
300.001
300.001
300.002
300.003
300.004
300.005
300.006
300.007
300.008
300.009
300.01
300.011
300.012
300.014
300.015
300.016
300.018
300.019
300.021
300.022
300.024
300.025
300.027
300.029
300.03
300.032
300.034
300.036
300.038
300.04
300.042
300.044
300.047
300.049
300.051
300.054
300.056
300.059
300.062
300.065
300.068
300.071
300.074
300.077
300.08
300.083
300.087
300.09
300.094
300.098
300.102
300.106
300.11
300.114
300.118
300.123
300.127
300.132
300.137
300.142
300.147
300.152
300.157
300.162
300.168
300.174
300.179
300.185
300.191
300.197
300.203
300.21
300.216
300.223
300.23
300.237
300.244
300.251
300.258
300.265
300.273
300.281
300.289
300.296
300.305
300.313
300.321
300.33
300.338
300.347
300.356
300.365
300.374
300.383
300.392
300
300
300
300
300
300
300
300
300
300
300
300
300
300.001
300.001
300.001
300.001
300.001
300.001
300.001
300.002
300.002
300.002
300.002
300.002
300.003
300.003
300.003
300.004
300.004
300.004
300.005
300.005
300.005
300.006
300.006
300.007
300.007
300.007
300.008
300.009
300.009
300.01
300.01
300.011
300.011
300.012
300.013
300.013
300.014
300.015
300.016
300.017
300.017
300.018
300.019
300.02
300.021
300.022
300.023
300.024
300.025
300.026
300.028
300.029
300.03
300.031
300.033
300.034
300.036
300.037
300.038
300.04
300.042
300.043
300.045
300.047
300.048
300.05
300.052
300.054
300.056
300.058
300.06
300.062
300.064
300.066
300.069
300.071
300.073
300.076
300.078
300.081
300.083
300.086
300.089
300.092
300.094
300.097
300.1
300
300
300
300
300
300
300
300
300
300
300
300
300
300
300
300
300
300
300
300
300
300
300
300
300
300
300
300
300
300
300
300.001
300.001
300.001
300.001
300.001
300.001
300.001
300.001
300.001
300.001
300.001
300.001
300.001
300.002
300.002
300.002
300.002
300.002
300.002
300.002
300.003
300.003
300.003
300.003
300.003
300.004
300.004
300.004
300.004
300.004
300.005
300.005
300.005
300.005
300.006
300.006
300.006
300.007
300.007
300.007
300.008
300.008
300.009
300.009
300.009
300.01
300.01
300.011
300.011
300.012
300.012
300.013
300.013
300.014
300.014
300.015
300.016
300.016
300.017
300.017
300.018
300.019
300.02
300.02
300.021
300.022
300.023
300.024
300.024
300
300
300
300
300
300
300
300
300
300
300
300
300
300
300
300
300
300
300
300
300
300
300
300
300
300
300
300
300
300
300
300
300
300
300
300
300
300
300
300
300
300
300
300
300
300
300
300
300
300
300
300
300
300
300.001
300.001
300.001
300.001
300.001
300.001
300.001
300.001
300.001
300.001
300.001
300.001
300.001
300.001
300.001
300.001
300.001
300.002
300.002
300.002
300.002
300.002
300.002
300.002
300.002
300.002
300.003
300.003
300.003
300.003
300.003
300.003
300.003
300.004
300.004
300.004
300.004
300.004
300.005
300.005
300.005
300.005
300.005
300.006
300.006
300.006
300
300
300
300
300
300
300
300
300
300
300
300
300
300
300
300
300
300
300
300
300
300
300
300
300
300
300
300
300
300
300
300
300
300
300
300
300
300
300
300
300
300
300
300
300
300
300
300
300
300
300
300
300
300
300
300
300
300
300
300
300
300
300
300
300
300
300
300
300
300
300
300
300
300
300
300.001
300.001
300.001
300.001
300.001
300.001
300.001
300.001
300.001
300.001
300.001
300.001
300.001
300.001
300.001
300.001
300.001
300.001
300.001
300.001
300.002
300.002
300.002
300.002
300.002
300
300
300
300
300
300
300
300
300
300
300
300
300
300
300
300
300
300
300
300
300
300
300
300
300
300
300
300
300
300
300
300
300
300
300
300
300
300
300
300
300
300
300
300
300
300
300
300
300
300
300
300
300
300
300
300
300
300
300
300
300
300
300
300
300
300
300
300
300
300
300
300
300
300
300
300
300
300
300
300
300
300
300
300
300
300.001
300.001
300.001
300.001
300.001
300.001
300.001
300.001
300.001
300.001
300.001
300.001
300.001
300.001
300.001
)
;

boundaryField
{
    inlet
    {
        type            fixedValue;
        value           uniform 300;
    }
    outlet
    {
        type            zeroGradient;
    }
    top
    {
        type            zeroGradient;
    }
    bottom
    {
        type            uniformFixedGradient;
        gradient        uniform 1000;
        uniformGradient constant 1000;
        value           nonuniform List<scalar> 
100
(
305.193
305.401
305.63
305.885
306.166
306.474
306.806
307.159
307.526
307.901
308.278
308.655
309.026
309.39
309.746
310.092
310.429
310.757
311.075
311.384
311.684
311.975
312.258
312.533
312.801
313.061
313.313
313.559
313.799
314.032
314.259
314.481
314.697
314.908
315.114
315.316
315.512
315.705
315.893
316.078
316.258
316.435
316.608
316.779
316.945
317.109
317.27
317.428
317.584
317.737
317.887
318.035
318.18
318.324
318.465
318.604
318.741
318.876
319.01
319.141
319.271
319.399
319.526
319.651
319.774
319.896
320.017
320.136
320.253
320.37
320.485
320.599
320.711
320.823
320.933
321.043
321.151
321.258
321.364
321.469
321.573
321.676
321.779
321.88
321.98
322.08
322.179
322.276
322.373
322.47
322.565
322.66
322.754
322.847
322.94
323.032
323.123
323.213
323.303
323.387
)
;
    }
    frontAndBack
    {
        type            empty;
    }
}


// ************************************************************************* //
