/*--------------------------------*- C++ -*----------------------------------*\
| =========                 |                                                 |
| \\      /  F ield         | OpenFOAM: The Open Source CFD Toolbox           |
|  \\    /   O peration     | Version:  v2012                                 |
|   \\  /    A nd           | Website:  www.openfoam.com                      |
|    \\/     M anipulation  |                                                 |
\*---------------------------------------------------------------------------*/
FoamFile
{
    version     2.0;
    format      ascii;
    class       volVectorField;
    location    "0.75";
    object      U;
}
// * * * * * * * * * * * * * * * * * * * * * * * * * * * * * * * * * * * * * //

dimensions      [0 1 -1 0 0 0 0];


internalField   nonuniform List<vector> 
1000
(
(9.18908 0.358219 0)
(8.62714 0.621956 0)
(7.8706 0.625101 0)
(6.9536 0.545504 0)
(6.10897 0.445317 0)
(5.44116 0.34016 0)
(4.9343 0.241875 0)
(4.54794 0.161442 0)
(4.25446 0.102658 0)
(4.03473 0.0630415 0)
(3.87158 0.0379763 0)
(3.74962 0.0231034 0)
(3.65662 0.0149301 0)
(3.58363 0.0108512 0)
(3.52443 0.00906072 0)
(3.47482 0.00841052 0)
(3.43203 0.00823724 0)
(3.39427 0.0081931 0)
(3.36038 0.00811852 0)
(3.32961 0.00795802 0)
(3.30148 0.00770812 0)
(3.27564 0.00738709 0)
(3.25184 0.00701889 0)
(3.22989 0.00662566 0)
(3.20962 0.00622501 0)
(3.19088 0.00582958 0)
(3.17354 0.00544771 0)
(3.1575 0.00508435 0)
(3.14264 0.00474193 0)
(3.12886 0.00442125 0)
(3.11608 0.00412208 0)
(3.10421 0.0038436 0)
(3.09319 0.00358466 0)
(3.08294 0.00334391 0)
(3.07342 0.00312004 0)
(3.06455 0.00291185 0)
(3.0563 0.00271815 0)
(3.04861 0.00253779 0)
(3.04145 0.00236973 0)
(3.03478 0.00221311 0)
(3.02856 0.00206713 0)
(3.02276 0.00193098 0)
(3.01735 0.00180388 0)
(3.0123 0.00168524 0)
(3.00759 0.00157455 0)
(3.0032 0.00147123 0)
(2.9991 0.00137467 0)
(2.99527 0.00128444 0)
(2.9917 0.0012002 0)
(2.98836 0.00112157 0)
(2.98525 0.00104806 0)
(2.98234 0.000979298 0)
(2.97962 0.000915067 0)
(2.97709 0.00085513 0)
(2.97472 0.000799117 0)
(2.97251 0.000746683 0)
(2.97044 0.000697664 0)
(2.96851 0.000651934 0)
(2.96671 0.000609235 0)
(2.96503 0.000569255 0)
(2.96346 0.000531838 0)
(2.96199 0.000496932 0)
(2.96062 0.000464374 0)
(2.95934 0.000433904 0)
(2.95814 0.000405359 0)
(2.95702 0.000378711 0)
(2.95598 0.000353881 0)
(2.955 0.000330671 0)
(2.95409 0.000308914 0)
(2.95324 0.000288575 0)
(2.95245 0.000269633 0)
(2.9517 0.000251956 0)
(2.95101 0.00023539 0)
(2.95036 0.000219879 0)
(2.94976 0.000205427 0)
(2.94919 0.000191958 0)
(2.94866 0.000179351 0)
(2.94817 0.00016753 0)
(2.94771 0.000156505 0)
(2.94728 0.000146234 0)
(2.94688 0.000136643 0)
(2.9465 0.000127636 0)
(2.94615 0.000119232 0)
(2.94582 0.000111383 0)
(2.94552 0.000104087 0)
(2.94523 9.72095e-05 0)
(2.94496 9.08235e-05 0)
(2.94471 8.4804e-05 0)
(2.94448 7.92766e-05 0)
(2.94426 7.40009e-05 0)
(2.94406 6.91968e-05 0)
(2.94387 6.45594e-05 0)
(2.94369 6.04255e-05 0)
(2.94353 5.63913e-05 0)
(2.94337 5.28317e-05 0)
(2.94323 4.95105e-05 0)
(2.94309 4.65137e-05 0)
(2.94296 4.47689e-05 0)
(2.94285 4.31823e-05 0)
(2.94267 4.74289e-05 0)
(10.0166 0.538194 0)
(10.3598 1.01284 0)
(10.5972 1.10737 0)
(10.6289 1.05922 0)
(10.5156 0.962287 0)
(10.3405 0.839341 0)
(10.1428 0.703271 0)
(9.93607 0.569813 0)
(9.72926 0.451075 0)
(9.53107 0.352367 0)
(9.34795 0.274016 0)
(9.1829 0.213872 0)
(9.03624 0.168845 0)
(8.90681 0.135697 0)
(8.79282 0.111477 0)
(8.69232 0.0937366 0)
(8.60344 0.0805693 0)
(8.52447 0.0705713 0)
(8.45392 0.0627524 0)
(8.39058 0.0564383 0)
(8.33341 0.0511809 0)
(8.28159 0.0466867 0)
(8.23442 0.0427642 0)
(8.19135 0.0392874 0)
(8.1519 0.0361721 0)
(8.11568 0.0333597 0)
(8.08235 0.0308081 0)
(8.05164 0.0284847 0)
(8.0233 0.0263637 0)
(7.9971 0.0244234 0)
(7.97286 0.0226452 0)
(7.95041 0.0210128 0)
(7.9296 0.0195122 0)
(7.91029 0.0181306 0)
(7.89236 0.0168568 0)
(7.87571 0.0156809 0)
(7.86023 0.014594 0)
(7.84584 0.0135884 0)
(7.83245 0.0126568 0)
(7.81999 0.011793 0)
(7.80839 0.0109916 0)
(7.79758 0.0102474 0)
(7.78751 0.00955582 0)
(7.77813 0.00891265 0)
(7.76939 0.00831427 0)
(7.76124 0.00775745 0)
(7.75364 0.007239 0)
(7.74655 0.00675591 0)
(7.73994 0.00630567 0)
(7.73377 0.00588614 0)
(7.72802 0.00549509 0)
(7.72265 0.0051303 0)
(7.71764 0.00478992 0)
(7.71296 0.00447245 0)
(7.7086 0.00417638 0)
(7.70452 0.00390005 0)
(7.70072 0.00364198 0)
(7.69717 0.0034011 0)
(7.69386 0.0031764 0)
(7.69076 0.00296667 0)
(7.68788 0.00277069 0)
(7.68518 0.00258764 0)
(7.68266 0.00241686 0)
(7.68031 0.00225748 0)
(7.67811 0.00210853 0)
(7.67606 0.00196933 0)
(7.67415 0.0018394 0)
(7.67236 0.00171819 0)
(7.67069 0.00160494 0)
(7.66913 0.00149905 0)
(7.66768 0.00140017 0)
(7.66632 0.00130793 0)
(7.66504 0.0012218 0)
(7.66386 0.00114125 0)
(7.66275 0.00106599 0)
(7.66172 0.000995762 0)
(7.66075 0.00093023 0)
(7.65985 0.000868943 0)
(7.659 0.000811663 0)
(7.65821 0.000758167 0)
(7.65748 0.000708296 0)
(7.65679 0.000661633 0)
(7.65615 0.000618058 0)
(7.65555 0.000577257 0)
(7.65499 0.000539315 0)
(7.65447 0.000503701 0)
(7.65398 0.00047062 0)
(7.65352 0.000439409 0)
(7.6531 0.000410666 0)
(7.6527 0.000383327 0)
(7.65233 0.000358437 0)
(7.65198 0.000334341 0)
(7.65166 0.000312942 0)
(7.65135 0.000291628 0)
(7.65107 0.000273521 0)
(7.6508 0.00025458 0)
(7.65057 0.0002399 0)
(7.65031 0.000223561 0)
(7.65015 0.000213935 0)
(7.64983 0.000204078 0)
(10.0142 0.268249 0)
(10.2913 0.627914 0)
(10.6543 0.777366 0)
(10.9896 0.805972 0)
(11.2531 0.782852 0)
(11.4505 0.731539 0)
(11.5949 0.661113 0)
(11.6943 0.581621 0)
(11.7554 0.502968 0)
(11.7857 0.431507 0)
(11.7936 0.369728 0)
(11.7859 0.317716 0)
(11.7683 0.274518 0)
(11.7445 0.238868 0)
(11.7173 0.209476 0)
(11.6884 0.185158 0)
(11.6592 0.164881 0)
(11.6303 0.147795 0)
(11.6023 0.13323 0)
(11.5754 0.120671 0)
(11.5498 0.10973 0)
(11.5256 0.100111 0)
(11.5027 0.0915875 0)
(11.4812 0.0839861 0)
(11.4611 0.0771695 0)
(11.4421 0.0710289 0)
(11.4244 0.065476 0)
(11.4078 0.060438 0)
(11.3923 0.0558543 0)
(11.3779 0.0516735 0)
(11.3644 0.0478516 0)
(11.3517 0.0443507 0)
(11.34 0.0411381 0)
(11.329 0.0381851 0)
(11.3187 0.0354665 0)
(11.3092 0.0329602 0)
(11.3003 0.0306467 0)
(11.292 0.0285088 0)
(11.2842 0.0265311 0)
(11.277 0.0246996 0)
(11.2703 0.0230022 0)
(11.264 0.0214279 0)
(11.2582 0.0199669 0)
(11.2527 0.0186098 0)
(11.2476 0.0173487 0)
(11.2429 0.0161761 0)
(11.2384 0.0150856 0)
(11.2343 0.0140708 0)
(11.2305 0.013126 0)
(11.2269 0.0122462 0)
(11.2235 0.0114267 0)
(11.2204 0.0106633 0)
(11.2175 0.00995162 0)
(11.2147 0.00928813 0)
(11.2122 0.00866963 0)
(11.2098 0.00809298 0)
(11.2076 0.00755507 0)
(11.2055 0.00705315 0)
(11.2036 0.00658494 0)
(11.2018 0.00614823 0)
(11.2001 0.0057407 0)
(11.1986 0.00536023 0)
(11.1971 0.00500512 0)
(11.1957 0.00467381 0)
(11.1945 0.00436459 0)
(11.1933 0.00407583 0)
(11.1922 0.00380619 0)
(11.1911 0.00355455 0)
(11.1902 0.0033197 0)
(11.1893 0.00310036 0)
(11.1884 0.00289548 0)
(11.1876 0.00270422 0)
(11.1869 0.00252573 0)
(11.1862 0.00235904 0)
(11.1856 0.00220331 0)
(11.185 0.00205786 0)
(11.1844 0.00192213 0)
(11.1839 0.00179536 0)
(11.1834 0.00167696 0)
(11.1829 0.00156628 0)
(11.1825 0.00146304 0)
(11.1821 0.00136653 0)
(11.1817 0.00127652 0)
(11.1814 0.00119218 0)
(11.1811 0.00111373 0)
(11.1808 0.00104006 0)
(11.1805 0.000971797 0)
(11.1802 0.000907255 0)
(11.18 0.00084799 0)
(11.1797 0.000791269 0)
(11.1795 0.000740186 0)
(11.1793 0.000689906 0)
(11.1791 0.000646468 0)
(11.179 0.000601154 0)
(11.1788 0.000565478 0)
(11.1786 0.000523332 0)
(11.1785 0.000496476 0)
(11.1783 0.000455349 0)
(11.1783 0.00044001 0)
(11.1781 0.000398732 0)
(10.0073 0.118147 0)
(10.1785 0.308609 0)
(10.4622 0.414344 0)
(10.799 0.451936 0)
(11.1327 0.455024 0)
(11.4378 0.440803 0)
(11.7089 0.4144 0)
(11.9457 0.379737 0)
(12.1486 0.341957 0)
(12.3197 0.305369 0)
(12.4627 0.27222 0)
(12.5823 0.243139 0)
(12.6831 0.217979 0)
(12.7689 0.196337 0)
(12.8426 0.177738 0)
(12.9065 0.161697 0)
(12.9624 0.147756 0)
(13.0118 0.135523 0)
(13.0556 0.124679 0)
(13.0948 0.114975 0)
(13.13 0.106222 0)
(13.1618 0.0982752 0)
(13.1905 0.0910242 0)
(13.2166 0.0843818 0)
(13.2403 0.0782791 0)
(13.262 0.0726598 0)
(13.2818 0.0674772 0)
(13.2999 0.0626912 0)
(13.3165 0.0582673 0)
(13.3318 0.0541747 0)
(13.3459 0.0503861 0)
(13.3589 0.0468767 0)
(13.3708 0.0436241 0)
(13.3819 0.0406081 0)
(13.3921 0.03781 0)
(13.4016 0.0352129 0)
(13.4103 0.0328013 0)
(13.4185 0.030561 0)
(13.426 0.0284792 0)
(13.4331 0.0265439 0)
(13.4396 0.0247441 0)
(13.4456 0.0230697 0)
(13.4513 0.0215117 0)
(13.4565 0.0200617 0)
(13.4614 0.0187115 0)
(13.4659 0.0174541 0)
(13.4702 0.0162829 0)
(13.4741 0.0151918 0)
(13.4778 0.0141751 0)
(13.4812 0.0132273 0)
(13.4844 0.0123438 0)
(13.4874 0.0115203 0)
(13.4902 0.0107525 0)
(13.4928 0.0100362 0)
(13.4952 0.00936817 0)
(13.4975 0.00874514 0)
(13.4996 0.008164 0)
(13.5016 0.00762168 0)
(13.5034 0.00711555 0)
(13.5051 0.00664337 0)
(13.5067 0.00620285 0)
(13.5082 0.00579165 0)
(13.5096 0.00540774 0)
(13.5109 0.00504944 0)
(13.5122 0.00471514 0)
(13.5133 0.00440306 0)
(13.5144 0.00411161 0)
(13.5154 0.00383951 0)
(13.5163 0.0035856 0)
(13.5172 0.00334859 0)
(13.518 0.00312723 0)
(13.5187 0.00292049 0)
(13.5194 0.00272754 0)
(13.5201 0.00254744 0)
(13.5207 0.00237924 0)
(13.5213 0.00222209 0)
(13.5218 0.0020754 0)
(13.5223 0.00193843 0)
(13.5228 0.00181059 0)
(13.5232 0.00169104 0)
(13.5236 0.00157951 0)
(13.524 0.00147522 0)
(13.5244 0.00137806 0)
(13.5247 0.00128695 0)
(13.525 0.00120227 0)
(13.5253 0.0011226 0)
(13.5256 0.00104902 0)
(13.5258 0.000979172 0)
(13.5261 0.000915432 0)
(13.5263 0.000853826 0)
(13.5265 0.000799153 0)
(13.5267 0.000744208 0)
(13.5268 0.000698197 0)
(13.527 0.000648074 0)
(13.5272 0.000611041 0)
(13.5273 0.000563555 0)
(13.5274 0.00053669 0)
(13.5276 0.000489085 0)
(13.5277 0.000474344 0)
(13.5279 0.00042335 0)
(10.0059 0.0346292 0)
(10.1369 0.0936602 0)
(10.3703 0.130468 0)
(10.6742 0.145633 0)
(11.0003 0.148545 0)
(11.3164 0.14565 0)
(11.6107 0.138883 0)
(11.8807 0.129192 0)
(12.1252 0.118065 0)
(12.3439 0.106964 0)
(12.5381 0.0967274 0)
(12.7103 0.0876282 0)
(12.864 0.0796597 0)
(13.0021 0.0727221 0)
(13.1271 0.0666881 0)
(13.2409 0.0614193 0)
(13.345 0.0567807 0)
(13.4407 0.0526532 0)
(13.5289 0.0489394 0)
(13.6105 0.045564 0)
(13.686 0.0424707 0)
(13.756 0.0396178 0)
(13.821 0.036974 0)
(13.8814 0.0345159 0)
(13.9375 0.0322252 0)
(13.9897 0.0300877 0)
(14.0383 0.0280916 0)
(14.0835 0.0262268 0)
(14.1255 0.0244845 0)
(14.1646 0.0228567 0)
(14.2011 0.021336 0)
(14.235 0.0199158 0)
(14.2667 0.0185893 0)
(14.2961 0.0173507 0)
(14.3236 0.0161945 0)
(14.3492 0.0151152 0)
(14.373 0.0141077 0)
(14.3952 0.0131673 0)
(14.416 0.0122897 0)
(14.4353 0.0114708 0)
(14.4533 0.0107067 0)
(14.4701 0.00999342 0)
(14.4858 0.00932787 0)
(14.5005 0.00870696 0)
(14.5141 0.00812761 0)
(14.5268 0.00758682 0)
(14.5387 0.00708212 0)
(14.5498 0.00661128 0)
(14.5602 0.00617201 0)
(14.5698 0.00576193 0)
(14.5788 0.0053791 0)
(14.5873 0.00502191 0)
(14.5951 0.0046887 0)
(14.6025 0.00437763 0)
(14.6093 0.00408712 0)
(14.6157 0.00381598 0)
(14.6217 0.00356307 0)
(14.6272 0.00332699 0)
(14.6324 0.00310645 0)
(14.6373 0.00290051 0)
(14.6418 0.00270843 0)
(14.646 0.00252918 0)
(14.65 0.00236171 0)
(14.6537 0.00220525 0)
(14.6571 0.00205929 0)
(14.6604 0.00192314 0)
(14.6634 0.00179596 0)
(14.6662 0.00167709 0)
(14.6688 0.00156615 0)
(14.6712 0.0014627 0)
(14.6735 0.00136611 0)
(14.6757 0.00127581 0)
(14.6777 0.00119149 0)
(14.6795 0.00111285 0)
(14.6813 0.00103947 0)
(14.6829 0.000970853 0)
(14.6844 0.000906755 0)
(14.6858 0.000846923 0)
(14.6871 0.000791138 0)
(14.6884 0.000738949 0)
(14.6895 0.000690206 0)
(14.6906 0.000644601 0)
(14.6916 0.000602179 0)
(14.6926 0.000562374 0)
(14.6934 0.000525374 0)
(14.6943 0.000490495 0)
(14.695 0.000458378 0)
(14.6957 0.000427805 0)
(14.6964 0.00040002 0)
(14.697 0.000372973 0)
(14.6976 0.000349198 0)
(14.6982 0.000325012 0)
(14.6987 0.000305119 0)
(14.6992 0.000282938 0)
(14.6996 0.000267076 0)
(14.7 0.000245953 0)
(14.7003 0.000234626 0)
(14.7008 0.000213316 0)
(14.701 0.000207146 0)
(14.7016 0.000184028 0)
(10.0059 -0.0346292 0)
(10.1369 -0.0936602 0)
(10.3703 -0.130468 0)
(10.6742 -0.145633 0)
(11.0003 -0.148545 0)
(11.3164 -0.14565 0)
(11.6107 -0.138883 0)
(11.8807 -0.129192 0)
(12.1252 -0.118065 0)
(12.3439 -0.106964 0)
(12.5381 -0.0967274 0)
(12.7103 -0.0876282 0)
(12.864 -0.0796597 0)
(13.0021 -0.0727222 0)
(13.1271 -0.0666881 0)
(13.2409 -0.0614192 0)
(13.345 -0.0567807 0)
(13.4407 -0.0526532 0)
(13.5289 -0.0489393 0)
(13.6105 -0.0455639 0)
(13.686 -0.0424707 0)
(13.756 -0.0396177 0)
(13.821 -0.0369739 0)
(13.8814 -0.0345158 0)
(13.9375 -0.0322251 0)
(13.9897 -0.0300877 0)
(14.0383 -0.0280916 0)
(14.0835 -0.0262268 0)
(14.1255 -0.0244844 0)
(14.1646 -0.0228567 0)
(14.2011 -0.0213361 0)
(14.235 -0.0199158 0)
(14.2667 -0.0185894 0)
(14.2961 -0.0173509 0)
(14.3236 -0.0161947 0)
(14.3492 -0.0151153 0)
(14.373 -0.0141078 0)
(14.3952 -0.0131675 0)
(14.416 -0.01229 0)
(14.4353 -0.0114711 0)
(14.4533 -0.0107067 0)
(14.4701 -0.00999348 0)
(14.4858 -0.00932807 0)
(14.5005 -0.00870711 0)
(14.5141 -0.00812749 0)
(14.5268 -0.00758662 0)
(14.5387 -0.00708206 0)
(14.5498 -0.00661125 0)
(14.5602 -0.00617172 0)
(14.5698 -0.00576148 0)
(14.5788 -0.00537877 0)
(14.5873 -0.00502172 0)
(14.5951 -0.00468837 0)
(14.6025 -0.00437712 0)
(14.6093 -0.00408671 0)
(14.6157 -0.00381582 0)
(14.6217 -0.00356292 0)
(14.6272 -0.0033267 0)
(14.6324 -0.00310622 0)
(14.6373 -0.00290059 0)
(14.6418 -0.00270864 0)
(14.646 -0.0025293 0)
(14.65 -0.00236182 0)
(14.6537 -0.00220561 0)
(14.6571 -0.00205984 0)
(14.6604 -0.00192363 0)
(14.6634 -0.00179634 0)
(14.6662 -0.00167757 0)
(14.6688 -0.00156677 0)
(14.6712 -0.00146326 0)
(14.6735 -0.00136647 0)
(14.6757 -0.00127612 0)
(14.6777 -0.00119184 0)
(14.6795 -0.00111313 0)
(14.6813 -0.00103953 0)
(14.6829 -0.000970772 0)
(14.6844 -0.000906642 0)
(14.6858 -0.000846772 0)
(14.6871 -0.000790841 0)
(14.6884 -0.000738527 0)
(14.6895 -0.00068978 0)
(14.6906 -0.000644228 0)
(14.6916 -0.000601788 0)
(14.6926 -0.000561957 0)
(14.6934 -0.000524998 0)
(14.6943 -0.000490214 0)
(14.695 -0.000458152 0)
(14.6957 -0.000427605 0)
(14.6964 -0.000399868 0)
(14.697 -0.0003729 0)
(14.6976 -0.0003492 0)
(14.6982 -0.000325057 0)
(14.6987 -0.000305199 0)
(14.6992 -0.000283044 0)
(14.6996 -0.000267181 0)
(14.7 -0.000246031 0)
(14.7003 -0.000234642 0)
(14.7008 -0.000213306 0)
(14.701 -0.000207088 0)
(14.7016 -0.000184002 0)
(10.0073 -0.118147 0)
(10.1785 -0.308609 0)
(10.4622 -0.414344 0)
(10.799 -0.451936 0)
(11.1327 -0.455024 0)
(11.4378 -0.440803 0)
(11.7089 -0.4144 0)
(11.9457 -0.379737 0)
(12.1486 -0.341957 0)
(12.3197 -0.305369 0)
(12.4627 -0.27222 0)
(12.5823 -0.243139 0)
(12.6831 -0.217979 0)
(12.7689 -0.196337 0)
(12.8426 -0.177738 0)
(12.9065 -0.161697 0)
(12.9624 -0.147756 0)
(13.0118 -0.135523 0)
(13.0556 -0.124679 0)
(13.0948 -0.114975 0)
(13.13 -0.106222 0)
(13.1618 -0.0982751 0)
(13.1905 -0.0910241 0)
(13.2166 -0.0843817 0)
(13.2403 -0.078279 0)
(13.262 -0.0726597 0)
(13.2818 -0.0674771 0)
(13.2999 -0.0626912 0)
(13.3165 -0.0582672 0)
(13.3318 -0.0541747 0)
(13.3459 -0.0503861 0)
(13.3589 -0.0468768 0)
(13.3708 -0.0436242 0)
(13.3819 -0.0406081 0)
(13.3921 -0.0378101 0)
(13.4016 -0.0352131 0)
(13.4103 -0.0328015 0)
(13.4185 -0.0305612 0)
(13.426 -0.0284794 0)
(13.4331 -0.0265441 0)
(13.4396 -0.0247443 0)
(13.4456 -0.0230699 0)
(13.4513 -0.0215118 0)
(13.4565 -0.0200617 0)
(13.4614 -0.0187116 0)
(13.4659 -0.0174541 0)
(13.4702 -0.0162827 0)
(13.4741 -0.0151916 0)
(13.4778 -0.0141749 0)
(13.4812 -0.0132271 0)
(13.4844 -0.0123435 0)
(13.4874 -0.01152 0)
(13.4902 -0.0107521 0)
(13.4928 -0.0100359 0)
(13.4952 -0.00936786 0)
(13.4975 -0.0087448 0)
(13.4996 -0.00816371 0)
(13.5016 -0.00762151 0)
(13.5034 -0.00711547 0)
(13.5051 -0.00664331 0)
(13.5067 -0.00620285 0)
(13.5082 -0.00579179 0)
(13.5096 -0.00540799 0)
(13.5109 -0.00504973 0)
(13.5122 -0.00471545 0)
(13.5133 -0.00440346 0)
(13.5144 -0.0041121 0)
(13.5154 -0.00384001 0)
(13.5163 -0.00358606 0)
(13.5172 -0.00334903 0)
(13.518 -0.00312768 0)
(13.5187 -0.00292088 0)
(13.5194 -0.00272783 0)
(13.5201 -0.00254762 0)
(13.5207 -0.00237937 0)
(13.5213 -0.00222213 0)
(13.5218 -0.00207533 0)
(13.5223 -0.00193825 0)
(13.5228 -0.00181034 0)
(13.5232 -0.00169076 0)
(13.5236 -0.00157917 0)
(13.524 -0.00147482 0)
(13.5244 -0.00137766 0)
(13.5247 -0.00128658 0)
(13.525 -0.00120193 0)
(13.5253 -0.00112228 0)
(13.5256 -0.00104875 0)
(13.5258 -0.000978961 0)
(13.5261 -0.000915295 0)
(13.5263 -0.000853747 0)
(13.5265 -0.000799131 0)
(13.5267 -0.000744244 0)
(13.5268 -0.000698286 0)
(13.527 -0.000648188 0)
(13.5272 -0.000611149 0)
(13.5273 -0.000563646 0)
(13.5274 -0.000536752 0)
(13.5276 -0.000489131 0)
(13.5277 -0.000474374 0)
(13.5279 -0.000423403 0)
(10.0142 -0.268249 0)
(10.2913 -0.627914 0)
(10.6543 -0.777366 0)
(10.9896 -0.805972 0)
(11.2531 -0.782852 0)
(11.4505 -0.731539 0)
(11.5949 -0.661113 0)
(11.6943 -0.581621 0)
(11.7554 -0.502968 0)
(11.7857 -0.431507 0)
(11.7936 -0.369728 0)
(11.7859 -0.317716 0)
(11.7683 -0.274518 0)
(11.7445 -0.238868 0)
(11.7173 -0.209476 0)
(11.6884 -0.185158 0)
(11.6592 -0.164881 0)
(11.6303 -0.147795 0)
(11.6023 -0.13323 0)
(11.5754 -0.120671 0)
(11.5498 -0.10973 0)
(11.5256 -0.100111 0)
(11.5027 -0.0915874 0)
(11.4812 -0.083986 0)
(11.4611 -0.0771695 0)
(11.4421 -0.0710288 0)
(11.4244 -0.0654759 0)
(11.4078 -0.060438 0)
(11.3923 -0.0558543 0)
(11.3779 -0.0516734 0)
(11.3644 -0.0478516 0)
(11.3517 -0.0443508 0)
(11.34 -0.0411382 0)
(11.329 -0.0381851 0)
(11.3187 -0.0354665 0)
(11.3092 -0.0329603 0)
(11.3003 -0.030647 0)
(11.292 -0.028509 0)
(11.2842 -0.0265311 0)
(11.277 -0.0246997 0)
(11.2703 -0.0230025 0)
(11.264 -0.0214281 0)
(11.2582 -0.0199668 0)
(11.2527 -0.0186098 0)
(11.2476 -0.0173488 0)
(11.2429 -0.0161763 0)
(11.2384 -0.0150855 0)
(11.2343 -0.0140705 0)
(11.2305 -0.0131259 0)
(11.2269 -0.0122461 0)
(11.2235 -0.0114265 0)
(11.2204 -0.0106628 0)
(11.2175 -0.00995127 0)
(11.2147 -0.00928803 0)
(11.2122 -0.0086695 0)
(11.2098 -0.00809263 0)
(11.2076 -0.00755473 0)
(11.2055 -0.0070531 0)
(11.2036 -0.00658502 0)
(11.2018 -0.00614815 0)
(11.2001 -0.00574056 0)
(11.1986 -0.00536034 0)
(11.1971 -0.00500546 0)
(11.1957 -0.00467407 0)
(11.1945 -0.00436472 0)
(11.1933 -0.00407608 0)
(11.1922 -0.00380666 0)
(11.1911 -0.003555 0)
(11.1902 -0.00331997 0)
(11.1893 -0.00310061 0)
(11.1884 -0.00289587 0)
(11.1876 -0.00270461 0)
(11.1869 -0.00252593 0)
(11.1862 -0.00235909 0)
(11.1856 -0.0022034 0)
(11.185 -0.00205796 0)
(11.1844 -0.00192209 0)
(11.1839 -0.00179516 0)
(11.1834 -0.00167673 0)
(11.1829 -0.00156609 0)
(11.1825 -0.0014628 0)
(11.1821 -0.00136618 0)
(11.1817 -0.00127614 0)
(11.1814 -0.00119187 0)
(11.1811 -0.00111346 0)
(11.1808 -0.00103978 0)
(11.1805 -0.000971532 0)
(11.1802 -0.000907073 0)
(11.18 -0.000847897 0)
(11.1797 -0.000791224 0)
(11.1795 -0.000740175 0)
(11.1793 -0.000689944 0)
(11.1791 -0.000646558 0)
(11.179 -0.000601269 0)
(11.1788 -0.000565589 0)
(11.1786 -0.000523443 0)
(11.1785 -0.000496589 0)
(11.1783 -0.000455468 0)
(11.1783 -0.00044015 0)
(11.1781 -0.00039886 0)
(10.0166 -0.538194 0)
(10.3598 -1.01284 0)
(10.5972 -1.10737 0)
(10.6289 -1.05922 0)
(10.5156 -0.962287 0)
(10.3405 -0.839341 0)
(10.1428 -0.703271 0)
(9.93607 -0.569813 0)
(9.72926 -0.451075 0)
(9.53107 -0.352368 0)
(9.34795 -0.274017 0)
(9.1829 -0.213872 0)
(9.03624 -0.168845 0)
(8.90681 -0.135697 0)
(8.79282 -0.111477 0)
(8.69232 -0.0937366 0)
(8.60344 -0.0805693 0)
(8.52447 -0.0705713 0)
(8.45392 -0.0627524 0)
(8.39058 -0.0564383 0)
(8.33341 -0.0511809 0)
(8.28159 -0.0466867 0)
(8.23442 -0.0427641 0)
(8.19135 -0.0392874 0)
(8.1519 -0.036172 0)
(8.11568 -0.0333597 0)
(8.08235 -0.030808 0)
(8.05164 -0.0284847 0)
(8.0233 -0.0263637 0)
(7.9971 -0.0244234 0)
(7.97286 -0.0226452 0)
(7.95041 -0.0210129 0)
(7.9296 -0.0195123 0)
(7.91029 -0.0181307 0)
(7.89236 -0.0168568 0)
(7.87571 -0.0156809 0)
(7.86023 -0.0145941 0)
(7.84584 -0.0135884 0)
(7.83245 -0.0126568 0)
(7.81999 -0.0117931 0)
(7.80839 -0.0109917 0)
(7.79758 -0.0102475 0)
(7.78751 -0.00955576 0)
(7.77813 -0.0089126 0)
(7.76939 -0.00831436 0)
(7.76124 -0.00775752 0)
(7.75364 -0.00723888 0)
(7.74655 -0.00675572 0)
(7.73994 -0.00630562 0)
(7.73377 -0.00588615 0)
(7.72802 -0.00549495 0)
(7.72265 -0.00513004 0)
(7.71764 -0.00478976 0)
(7.71296 -0.00447244 0)
(7.7086 -0.0041763 0)
(7.70452 -0.00389982 0)
(7.70072 -0.00364182 0)
(7.69717 -0.00340114 0)
(7.69386 -0.00317647 0)
(7.69076 -0.00296659 0)
(7.68788 -0.00277062 0)
(7.68518 -0.00258776 0)
(7.68266 -0.00241708 0)
(7.68031 -0.00225759 0)
(7.67811 -0.00210858 0)
(7.67606 -0.00196949 0)
(7.67415 -0.00183969 0)
(7.67236 -0.00171841 0)
(7.67069 -0.00160505 0)
(7.66913 -0.00149918 0)
(7.66768 -0.0014004 0)
(7.66631 -0.00130812 0)
(7.66504 -0.00122186 0)
(7.66386 -0.00114125 0)
(7.66275 -0.00106604 0)
(7.66172 -0.00099581 0)
(7.66075 -0.000930173 0)
(7.65985 -0.000868803 0)
(7.659 -0.000811537 0)
(7.65822 -0.000758063 0)
(7.65748 -0.000708137 0)
(7.65679 -0.000661404 0)
(7.65615 -0.000617835 0)
(7.65555 -0.000577082 0)
(7.65499 -0.000539154 0)
(7.65447 -0.000503531 0)
(7.65398 -0.000470475 0)
(7.65352 -0.000439323 0)
(7.6531 -0.000410629 0)
(7.6527 -0.000383312 0)
(7.65233 -0.000358441 0)
(7.65198 -0.000334372 0)
(7.65166 -0.000312998 0)
(7.65135 -0.000291694 0)
(7.65107 -0.000273594 0)
(7.6508 -0.000254675 0)
(7.65057 -0.000240016 0)
(7.65031 -0.000223699 0)
(7.65015 -0.000214086 0)
(7.64983 -0.000204178 0)
(9.18908 -0.358219 0)
(8.62714 -0.621956 0)
(7.8706 -0.625101 0)
(6.9536 -0.545504 0)
(6.10897 -0.445317 0)
(5.44116 -0.34016 0)
(4.9343 -0.241875 0)
(4.54794 -0.161442 0)
(4.25446 -0.102658 0)
(4.03473 -0.0630415 0)
(3.87158 -0.0379763 0)
(3.74962 -0.0231034 0)
(3.65662 -0.0149301 0)
(3.58363 -0.0108512 0)
(3.52443 -0.00906072 0)
(3.47482 -0.00841052 0)
(3.43203 -0.00823724 0)
(3.39427 -0.0081931 0)
(3.36038 -0.00811852 0)
(3.32961 -0.00795801 0)
(3.30148 -0.00770811 0)
(3.27564 -0.00738709 0)
(3.25184 -0.00701889 0)
(3.22989 -0.00662566 0)
(3.20962 -0.006225 0)
(3.19088 -0.00582957 0)
(3.17354 -0.00544771 0)
(3.1575 -0.00508435 0)
(3.14264 -0.00474193 0)
(3.12886 -0.00442124 0)
(3.11608 -0.00412208 0)
(3.10421 -0.00384362 0)
(3.09319 -0.00358467 0)
(3.08294 -0.00334391 0)
(3.07342 -0.00312006 0)
(3.06455 -0.00291188 0)
(3.0563 -0.00271817 0)
(3.04861 -0.00253779 0)
(3.04145 -0.00236974 0)
(3.03478 -0.00221314 0)
(3.02856 -0.00206716 0)
(3.02276 -0.00193097 0)
(3.01735 -0.00180387 0)
(3.0123 -0.00168525 0)
(3.00759 -0.00157456 0)
(3.0032 -0.0014712 0)
(2.9991 -0.00137463 0)
(2.99527 -0.00128442 0)
(2.9917 -0.0012002 0)
(2.98836 -0.00112154 0)
(2.98525 -0.001048 0)
(2.98234 -0.000979263 0)
(2.97962 -0.000915064 0)
(2.97709 -0.000855111 0)
(2.97472 -0.000799064 0)
(2.97251 -0.000746647 0)
(2.97044 -0.000697673 0)
(2.96851 -0.000651949 0)
(2.96671 -0.000609217 0)
(2.96503 -0.000569238 0)
(2.96346 -0.000531868 0)
(2.96199 -0.000496984 0)
(2.96062 -0.000464401 0)
(2.95934 -0.000433917 0)
(2.95814 -0.000405404 0)
(2.95702 -0.000378782 0)
(2.95598 -0.000353932 0)
(2.955 -0.000330694 0)
(2.95409 -0.000308949 0)
(2.95324 -0.000288636 0)
(2.95245 -0.000269682 0)
(2.9517 -0.000251969 0)
(2.95101 -0.000235392 0)
(2.95036 -0.000219897 0)
(2.94976 -0.000205442 0)
(2.94919 -0.000191943 0)
(2.94866 -0.000179318 0)
(2.94817 -0.000167505 0)
(2.94771 -0.000156484 0)
(2.94728 -0.000146193 0)
(2.94688 -0.000136583 0)
(2.9465 -0.000127578 0)
(2.94615 -0.000119186 0)
(2.94582 -0.000111335 0)
(2.94552 -0.000104034 0)
(2.94523 -9.71658e-05 0)
(2.94496 -9.0799e-05 0)
(2.94471 -8.47905e-05 0)
(2.94448 -7.92661e-05 0)
(2.94426 -7.39959e-05 0)
(2.94406 -6.92009e-05 0)
(2.94387 -6.45685e-05 0)
(2.94369 -6.04348e-05 0)
(2.94353 -5.64032e-05 0)
(2.94337 -5.28553e-05 0)
(2.94323 -4.95515e-05 0)
(2.94309 -4.65664e-05 0)
(2.94296 -4.48289e-05 0)
(2.94285 -4.32309e-05 0)
(2.94267 -4.74499e-05 0)
)
;

boundaryField
{
    inlet
    {
        type            fixedValue;
        value           uniform (10 0 0);
    }
    outlet
    {
        type            pressureInletOutletVelocity;
        value           nonuniform List<vector> 10((2.94267 4.74289e-05 0) (7.64983 0.000204078 0) (11.1781 0.000398732 0) (13.5279 0.00042335 0) (14.7016 0.000184028 0) (14.7016 -0.000184002 0) (13.5279 -0.000423403 0) (11.1781 -0.00039886 0) (7.64983 -0.000204178 0) (2.94267 -4.74499e-05 0));
    }
    top
    {
        type            noSlip;
    }
    bottom
    {
        type            noSlip;
    }
    frontAndBack
    {
        type            empty;
    }
}


// ************************************************************************* //
