/*--------------------------------*- C++ -*----------------------------------*\
| =========                 |                                                 |
| \\      /  F ield         | OpenFOAM: The Open Source CFD Toolbox           |
|  \\    /   O peration     | Version:  v2012                                 |
|   \\  /    A nd           | Website:  www.openfoam.com                      |
|    \\/     M anipulation  |                                                 |
\*---------------------------------------------------------------------------*/
FoamFile
{
    version     2.0;
    format      ascii;
    class       surfaceScalarField;
    location    "0.25";
    object      phi;
}
// * * * * * * * * * * * * * * * * * * * * * * * * * * * * * * * * * * * * * //

dimensions      [0 3 -1 0 0 0 0];
oriented        oriented;


internalField   nonuniform List<scalar> 
1890
(
0.0093062
0.000693804
0.00828439
0.0010218
0.0073299
0.000954494
0.00648696
0.000842943
0.00576958
0.000717371
0.00518986
0.000579724
0.00473817
0.000451692
0.00439519
0.000342978
0.00413903
0.000256163
0.00394911
0.00018992
0.00380789
0.000141219
0.00370138
0.00010651
0.00361906
8.23202e-05
0.00355341
6.56462e-05
0.00349928
5.41273e-05
0.00345324
4.604e-05
0.00341305
4.01943e-05
0.00337726
3.57928e-05
0.00334494
3.23188e-05
0.00331549
2.94493e-05
0.0032885
2.69886e-05
0.00326368
2.48203e-05
0.00324081
2.28755e-05
0.00321969
2.11124e-05
0.00320019
1.95047e-05
0.00318215
1.8034e-05
0.00316547
1.66867e-05
0.00315002
1.54514e-05
0.0031357
1.43179e-05
0.00312242
1.32771e-05
0.0031101
1.23206e-05
0.00309866
1.14407e-05
0.00308803
1.06304e-05
0.00307815
9.88337e-06
0.00306895
9.19377e-06
0.0030604
8.5565e-06
0.00305243
7.96694e-06
0.00304501
7.42093e-06
0.00303809
6.91475e-06
0.00303165
6.44511e-06
0.00302564
6.00905e-06
0.00302004
5.60384e-06
0.00301481
5.22704e-06
0.00300993
4.87649e-06
0.00300538
4.55024e-06
0.00300113
4.24642e-06
0.00299717
3.96336e-06
0.00299347
3.69956e-06
0.00299002
3.45371e-06
0.00298679
3.22448e-06
0.00298378
3.01063e-06
0.00298097
2.81113e-06
0.00297835
2.62506e-06
0.0029759
2.45145e-06
0.00297361
2.28935e-06
0.00297147
2.13802e-06
0.00296947
1.99682e-06
0.00296761
1.86504e-06
0.00296586
1.74194e-06
0.00296424
1.62695e-06
0.00296272
1.51963e-06
0.0029613
1.41948e-06
0.00295997
1.3259e-06
0.00295873
1.23843e-06
0.00295758
1.15678e-06
0.0029565
1.0806e-06
0.00295549
1.00942e-06
0.00295454
9.4286e-07
0.00295366
8.80699e-07
0.00295284
8.2271e-07
0.00295207
7.68548e-07
0.00295135
7.1788e-07
0.00295068
6.70537e-07
0.00295006
6.26376e-07
0.00294947
5.85158e-07
0.00294893
5.46592e-07
0.00294842
5.10541e-07
0.00294794
4.76901e-07
0.00294749
4.45534e-07
0.00294708
4.1618e-07
0.00294669
3.88742e-07
0.00294633
3.63102e-07
0.00294599
3.39238e-07
0.00294567
3.16872e-07
0.00294537
2.9602e-07
0.0029451
2.76441e-07
0.00294484
2.58323e-07
0.0029446
2.41219e-07
0.00294437
2.25448e-07
0.00294416
2.10416e-07
0.00294396
1.96779e-07
0.00294378
1.83576e-07
0.00294361
1.71832e-07
0.00294345
1.60179e-07
0.0029433
1.5017e-07
0.00294316
1.40097e-07
0.00294303
1.31721e-07
0.0029429
1.24182e-07
0.00294278
1.18311e-07
1.20815e-07
0.0103395
0.000354279
0.0105708
0.000790573
0.0106063
0.000918948
0.0105476
0.000901671
0.0104223
0.000842626
0.0102444
0.000757686
0.0100394
0.000656627
0.00982874
0.000553656
0.00962514
0.000459771
0.0094353
0.000379754
0.00926243
0.000314093
0.00910753
0.000261404
0.00897015
0.000219699
0.0088489
0.000186898
0.00874197
0.000161058
0.00864749
0.000140519
0.00856369
0.000123993
0.00848901
0.000110476
0.00842211
9.92199e-05
0.00836188
8.96814e-05
0.0083074
8.14707e-05
0.00825791
7.43078e-05
0.00821279
6.79905e-05
0.00817154
6.237e-05
0.00813371
5.7335e-05
0.00809894
5.28002e-05
0.00806693
4.86983e-05
0.0080374
4.4975e-05
0.00801014
4.15854e-05
0.00798492
3.84918e-05
0.00796158
3.56621e-05
0.00793995
3.30686e-05
0.0079199
3.06872e-05
0.00790128
2.84969e-05
0.007884
2.64793e-05
0.00786793
2.46182e-05
0.007853
2.28993e-05
0.00783911
2.13099e-05
0.00782619
1.98387e-05
0.00781416
1.84756e-05
0.00780296
1.72116e-05
0.00779252
1.60387e-05
0.0077828
1.49494e-05
0.00777374
1.39373e-05
0.00776529
1.29963e-05
0.00775742
1.2121e-05
0.00775007
1.13065e-05
0.00774323
1.05482e-05
0.00773684
9.84199e-06
0.00773088
9.18419e-06
0.00772532
8.57119e-06
0.00772013
7.99979e-06
0.00771529
7.46712e-06
0.00771077
6.97048e-06
0.00770655
6.50729e-06
0.00770261
6.07515e-06
0.00769894
5.67202e-06
0.00769551
5.29597e-06
0.0076923
4.94506e-06
0.00768931
4.6175e-06
0.00768652
4.31178e-06
0.00768391
4.0265e-06
0.00768148
3.76024e-06
0.00767921
3.51159e-06
0.00767708
3.27943e-06
0.0076751
3.06275e-06
0.00767325
2.86048e-06
0.00767152
2.67156e-06
0.00766991
2.4951e-06
0.0076684
2.33036e-06
0.00766699
2.17659e-06
0.00766568
2.03295e-06
0.00766445
1.89874e-06
0.0076633
1.77342e-06
0.00766223
1.65645e-06
0.00766123
1.54719e-06
0.0076603
1.44511e-06
0.00765942
1.34973e-06
0.00765861
1.26075e-06
0.00765785
1.17761e-06
0.00765713
1.09999e-06
0.00765647
1.02737e-06
0.00765585
9.59705e-07
0.00765527
8.96366e-07
0.00765473
8.37401e-07
0.00765422
7.82007e-07
0.00765375
7.30674e-07
0.00765331
6.82223e-07
0.0076529
6.37666e-07
0.00765251
5.95091e-07
0.00765215
5.56589e-07
0.00765182
5.18977e-07
0.0076515
4.86108e-07
0.00765121
4.52461e-07
0.00765094
4.25116e-07
0.00765068
3.94385e-07
0.00765044
3.73361e-07
0.00765022
3.44637e-07
0.00765001
3.33378e-07
3.04642e-07
0.0101887
0.000165575
0.0105305
0.000448791
0.0108515
0.000597982
0.0111242
0.00062895
0.0113506
0.000616219
0.0115245
0.000583781
0.0116463
0.000534784
0.0117242
0.00047583
0.011768
0.000415927
0.0117866
0.000361114
0.0117871
0.000313617
0.0117751
0.00027346
0.0117549
0.000239897
0.0117298
0.00021199
0.0117021
0.000188773
0.0116732
0.000169334
0.0116443
0.000152893
0.011616
0.000138812
0.0115886
0.000126594
0.0115624
0.000115864
0.0115376
0.000106345
0.0115141
9.7827e-05
0.0114919
9.01534e-05
0.0114711
8.32034e-05
0.0114515
7.68826e-05
0.0114332
7.11156e-05
0.0114161
6.58403e-05
0.0114
6.10049e-05
0.011385
5.65651e-05
0.0113711
5.24823e-05
0.011358
4.8723e-05
0.0113458
4.52574e-05
0.0113344
4.2059e-05
0.0113238
3.91043e-05
0.0113139
3.63722e-05
0.0113047
3.38436e-05
0.0112961
3.15017e-05
0.0112881
2.9331e-05
0.0112806
2.73177e-05
0.0112736
2.54492e-05
0.0112671
2.3714e-05
0.0112611
2.21019e-05
0.0112554
2.06034e-05
0.0112501
1.92099e-05
0.0112452
1.79135e-05
0.0112406
1.67071e-05
0.0112364
1.5584e-05
0.0112324
1.45381e-05
0.0112286
1.35639e-05
0.0112252
1.26563e-05
0.0112219
1.18106e-05
0.0112189
1.10221e-05
0.0112161
1.02871e-05
0.0112135
9.60184e-06
0.011211
8.96282e-06
0.0112087
8.36671e-06
0.0112066
7.8106e-06
0.0112046
7.29189e-06
0.0112027
6.80799e-06
0.011201
6.35637e-06
0.0111994
5.93486e-06
0.0111978
5.54156e-06
0.0111964
5.17458e-06
0.0111951
4.83199e-06
0.0111939
4.51211e-06
0.0111927
4.21354e-06
0.0111916
3.93492e-06
0.0111906
3.67478e-06
0.0111897
3.43181e-06
0.0111888
3.20495e-06
0.011188
2.99322e-06
0.0111873
2.79552e-06
0.0111865
2.61084e-06
0.0111859
2.43833e-06
0.0111853
2.27733e-06
0.0111847
2.12701e-06
0.0111841
1.98659e-06
0.0111836
1.85537e-06
0.0111832
1.73294e-06
0.0111827
1.61858e-06
0.0111823
1.51185e-06
0.0111819
1.41198e-06
0.0111816
1.31893e-06
0.0111812
1.2318e-06
0.0111809
1.1508e-06
0.0111806
1.07459e-06
0.0111803
1.00411e-06
0.0111801
9.37361e-07
0.0111798
8.76318e-07
0.0111796
8.17517e-07
0.0111794
7.65013e-07
0.0111792
7.12686e-07
0.011179
6.6838e-07
0.0111789
6.20839e-07
0.0111787
5.84991e-07
0.0111786
5.4013e-07
0.0111784
5.14125e-07
0.0111783
4.69162e-07
0.0111782
4.55292e-07
4.09091e-07
0.0100972
6.83936e-05
0.010347
0.000199011
0.0106625
0.000282474
0.0109828
0.000308666
0.0112902
0.000308743
0.0115753
0.000298758
0.011829
0.000281013
0.0120479
0.000256988
0.0122333
0.00023052
0.0123892
0.000205146
0.0125203
0.000182562
0.0126308
0.000163
0.0127244
0.000146225
0.0128045
0.000131903
0.0128736
0.000119674
0.0129338
0.000109175
0.0129866
0.000100069
0.0130333
9.20764e-05
0.013075
8.49753e-05
0.0131122
7.85986e-05
0.0131457
7.28223e-05
0.013176
6.75539e-05
0.0132034
6.27239e-05
0.0132284
5.82789e-05
0.0132511
5.4177e-05
0.0132718
5.03844e-05
0.0132908
4.68732e-05
0.0133082
4.36192e-05
0.0133241
4.06015e-05
0.0133388
3.78013e-05
0.0133523
3.52018e-05
0.0133648
3.27875e-05
0.0133763
3.05446e-05
0.0133869
2.84601e-05
0.0133968
2.65223e-05
0.0134059
2.47202e-05
0.0134144
2.30438e-05
0.0134222
2.14841e-05
0.0134295
2.00326e-05
0.0134363
1.86813e-05
0.0134426
1.7423e-05
0.0134484
1.62512e-05
0.0134539
1.51598e-05
0.0134589
1.41429e-05
0.0134637
1.31952e-05
0.013468
1.2312e-05
0.0134721
1.14889e-05
0.013476
1.07215e-05
0.0134795
1.00059e-05
0.0134828
9.33862e-06
0.0134859
8.71648e-06
0.0134888
8.1362e-06
0.0134915
7.59473e-06
0.013494
7.08961e-06
0.0134964
6.61854e-06
0.0134986
6.17905e-06
0.0135006
5.76875e-06
0.0135025
5.38582e-06
0.0135043
5.02865e-06
0.0135059
4.6954e-06
0.0135075
4.38419e-06
0.0135089
4.0936e-06
0.0135103
3.82251e-06
0.0135116
3.5696e-06
0.0135127
3.33338e-06
0.0135138
3.11269e-06
0.0135149
2.90677e-06
0.0135158
2.71469e-06
0.0135167
2.53529e-06
0.0135176
2.36758e-06
0.0135183
2.21103e-06
0.0135191
2.06502e-06
0.0135197
1.92869e-06
0.0135204
1.80121e-06
0.013521
1.68214e-06
0.0135215
1.57108e-06
0.0135221
1.46744e-06
0.0135225
1.37051e-06
0.013523
1.27998e-06
0.0135234
1.19544e-06
0.0135238
1.11668e-06
0.0135242
1.04293e-06
0.0135245
9.74157e-07
0.0135248
9.09715e-07
0.0135251
8.49958e-07
0.0135254
7.93662e-07
0.0135257
7.4165e-07
0.0135259
6.92202e-07
0.0135262
6.47272e-07
0.0135264
6.03666e-07
0.0135266
5.6516e-07
0.0135268
5.26112e-07
0.0135269
4.93879e-07
0.0135271
4.58109e-07
0.0135273
4.32457e-07
0.0135274
3.98236e-07
0.0135275
3.80067e-07
0.0135277
3.44983e-07
0.0135278
3.35265e-07
3.00763e-07
0.0100684
-1.93405e-13
0.0102674
-4.60228e-13
0.0105499
-4.28536e-13
0.0108585
-4.20914e-14
0.0111673
6.37214e-13
0.011466
1.39181e-12
0.0117471
1.82456e-12
0.012004
1.87164e-12
0.0122346
1.61967e-12
0.0124397
1.25397e-12
0.0126223
8.80729e-13
0.0127853
8.93577e-13
0.0129315
1.3691e-12
0.0130634
1.86715e-12
0.0131831
2.11894e-12
0.0132923
2.55826e-12
0.0133923
3.17112e-12
0.0134844
3.13779e-12
0.0135694
2.94103e-12
0.013648
3.73127e-12
0.0137208
4.35261e-12
0.0137883
4.00171e-12
0.0138511
4.36289e-12
0.0139094
6.43964e-12
0.0139635
5.71742e-12
0.0140139
2.58757e-12
0.0140608
2.23298e-12
0.0141044
6.69428e-12
0.014145
4.92143e-12
0.0141828
-1.70661e-12
0.014218
-7.37702e-13
0.0142508
1.14893e-11
0.0142813
7.99239e-12
0.0143098
-5.81324e-12
0.0143363
-5.38395e-12
0.014361
1.43172e-11
0.0143841
1.0207e-11
0.0144056
-1.59707e-11
0.0144256
-1.65292e-11
0.0144443
1.39008e-11
0.0144617
1.80511e-11
0.014478
-1.4134e-11
0.0144931
-2.30527e-11
0.0145073
1.72574e-11
0.0145205
3.96539e-11
0.0145328
-4.09041e-12
0.0145443
-3.20496e-11
0.014555
1.50272e-11
0.014565
6.21341e-11
0.0145743
6.87266e-12
0.014583
-5.12447e-11
0.0145912
1.42249e-12
0.0145988
7.53597e-11
0.0146059
1.77535e-11
0.0146125
-6.17982e-11
0.0146187
-1.05452e-11
0.0146244
7.82909e-11
0.0146298
2.87257e-11
0.0146348
-5.63683e-11
0.0146395
-2.16361e-11
0.0146439
6.27009e-11
0.014648
3.24297e-11
0.0146518
-4.11594e-11
0.0146554
-3.66956e-11
0.0146587
2.07079e-11
0.0146619
4.15932e-11
0.0146648
-1.71263e-11
0.0146675
-5.69164e-11
0.01467
-6.19482e-12
0.0146724
4.25584e-11
0.0146746
8.04454e-13
0.0146767
-6.08546e-11
0.0146786
-1.59302e-11
0.0146804
4.1745e-11
0.0146821
9.25474e-12
0.0146836
-5.11047e-11
0.0146851
-3.02553e-11
0.0146865
8.1249e-12
0.0146878
5.50082e-12
0.014689
-3.40727e-11
0.0146901
-3.27765e-11
0.0146911
-5.32637e-12
0.0146921
1.04672e-11
0.014693
-4.79894e-12
0.0146938
-1.54041e-11
0.0146946
-1.70703e-12
0.0146954
1.49156e-11
0.0146961
8.51924e-12
0.0146967
1.48857e-12
0.0146973
5.46857e-12
0.0146979
1.29537e-11
0.0146984
9.57094e-12
0.0146989
6.93535e-12
0.0146994
6.28702e-12
0.0146998
-4.3488e-13
0.0147002
-2.88288e-12
0.0147006
-3.55226e-12
0.0147009
-6.01597e-12
0.0147013
-1.73191e-11
-1.76232e-11
0.0100684
-6.83936e-05
0.0102674
-0.000199011
0.0105499
-0.000282474
0.0108585
-0.000308666
0.0111673
-0.000308743
0.011466
-0.000298758
0.0117471
-0.000281013
0.012004
-0.000256988
0.0122346
-0.00023052
0.0124397
-0.000205146
0.0126223
-0.000182562
0.0127853
-0.000163
0.0129315
-0.000146225
0.0130634
-0.000131903
0.0131831
-0.000119674
0.0132923
-0.000109175
0.0133923
-0.000100069
0.0134844
-9.20764e-05
0.0135694
-8.49753e-05
0.013648
-7.85986e-05
0.0137208
-7.28223e-05
0.0137883
-6.75539e-05
0.0138511
-6.27239e-05
0.0139094
-5.82789e-05
0.0139635
-5.4177e-05
0.0140139
-5.03844e-05
0.0140608
-4.68732e-05
0.0141044
-4.36192e-05
0.014145
-4.06014e-05
0.0141828
-3.78013e-05
0.014218
-3.52018e-05
0.0142508
-3.27875e-05
0.0142813
-3.05446e-05
0.0143098
-2.84601e-05
0.0143363
-2.65223e-05
0.014361
-2.47201e-05
0.0143841
-2.30438e-05
0.0144056
-2.14841e-05
0.0144256
-2.00326e-05
0.0144443
-1.86813e-05
0.0144617
-1.7423e-05
0.014478
-1.62512e-05
0.0144931
-1.51598e-05
0.0145073
-1.41428e-05
0.0145205
-1.31951e-05
0.0145328
-1.2312e-05
0.0145443
-1.14889e-05
0.014555
-1.07215e-05
0.014565
-1.00058e-05
0.0145743
-9.33866e-06
0.014583
-8.71653e-06
0.0145912
-8.13614e-06
0.0145988
-7.59465e-06
0.0146059
-7.08964e-06
0.0146125
-6.61861e-06
0.0146187
-6.17899e-06
0.0146244
-5.76864e-06
0.0146298
-5.38581e-06
0.0146348
-5.02872e-06
0.0146395
-4.69538e-06
0.0146439
-4.38406e-06
0.014648
-4.09356e-06
0.0146518
-3.8226e-06
0.0146554
-3.56963e-06
0.0146587
-3.33329e-06
0.0146619
-3.11266e-06
0.0146648
-2.90687e-06
0.0146675
-2.71474e-06
0.01467
-2.5352e-06
0.0146724
-2.36753e-06
0.0146746
-2.2111e-06
0.0146767
-2.0651e-06
0.0146786
-1.92865e-06
0.0146804
-1.80113e-06
0.0146821
-1.68217e-06
0.0146836
-1.57116e-06
0.0146851
-1.46745e-06
0.0146865
-1.37046e-06
0.0146878
-1.27998e-06
0.014689
-1.19553e-06
0.0146901
-1.11673e-06
0.0146911
-1.04291e-06
0.0146921
-9.74167e-07
0.014693
-9.09799e-07
0.0146938
-8.50008e-07
0.0146946
-7.93647e-07
0.0146954
-7.41637e-07
0.0146961
-6.92235e-07
0.0146967
-6.47297e-07
0.0146973
-6.03648e-07
0.0146979
-5.6513e-07
0.0146984
-5.26107e-07
0.0146989
-4.93884e-07
0.0146994
-4.58103e-07
0.0146998
-4.3244e-07
0.0147002
-3.98236e-07
0.0147006
-3.80079e-07
0.0147009
-3.44998e-07
0.0147013
-3.35289e-07
-3.00786e-07
0.0100972
-0.000165575
0.010347
-0.000448791
0.0106625
-0.000597982
0.0109828
-0.00062895
0.0112902
-0.000616219
0.0115753
-0.000583781
0.011829
-0.000534784
0.0120479
-0.00047583
0.0122333
-0.000415927
0.0123892
-0.000361114
0.0125203
-0.000313617
0.0126308
-0.00027346
0.0127244
-0.000239897
0.0128045
-0.00021199
0.0128736
-0.000188773
0.0129338
-0.000169334
0.0129866
-0.000152893
0.0130333
-0.000138812
0.013075
-0.000126594
0.0131122
-0.000115864
0.0131457
-0.000106345
0.013176
-9.7827e-05
0.0132034
-9.01533e-05
0.0132284
-8.32034e-05
0.0132511
-7.68826e-05
0.0132718
-7.11155e-05
0.0132908
-6.58403e-05
0.0133082
-6.10049e-05
0.0133241
-5.65651e-05
0.0133388
-5.24823e-05
0.0133523
-4.8723e-05
0.0133648
-4.52574e-05
0.0133763
-4.2059e-05
0.013387
-3.91043e-05
0.0133968
-3.63721e-05
0.0134059
-3.38437e-05
0.0134144
-3.15017e-05
0.0134222
-2.9331e-05
0.0134295
-2.73177e-05
0.0134363
-2.54492e-05
0.0134426
-2.3714e-05
0.0134484
-2.21018e-05
0.0134539
-2.06034e-05
0.0134589
-1.921e-05
0.0134637
-1.79136e-05
0.013468
-1.6707e-05
0.0134721
-1.55839e-05
0.013476
-1.45382e-05
0.0134795
-1.3564e-05
0.0134828
-1.26563e-05
0.0134859
-1.18104e-05
0.0134888
-1.10222e-05
0.0134915
-1.02873e-05
0.013494
-9.60176e-06
0.0134964
-8.9626e-06
0.0134986
-8.36671e-06
0.0135006
-7.81076e-06
0.0135025
-7.29183e-06
0.0135043
-6.80772e-06
0.0135059
-6.3563e-06
0.0135075
-5.93504e-06
0.0135089
-5.54161e-06
0.0135103
-5.17437e-06
0.0135116
-4.83189e-06
0.0135127
-4.5123e-06
0.0135138
-4.2137e-06
0.0135149
-3.9348e-06
0.0135158
-3.67465e-06
0.0135167
-3.43193e-06
0.0135176
-3.20511e-06
0.0135183
-2.99313e-06
0.0135191
-2.79532e-06
0.0135197
-2.61085e-06
0.0135204
-2.43848e-06
0.013521
-2.2773e-06
0.0135215
-2.12682e-06
0.0135221
-1.98654e-06
0.0135225
-1.8555e-06
0.013523
-1.733e-06
0.0135234
-1.61847e-06
0.0135238
-1.5118e-06
0.0135242
-1.4121e-06
0.0135245
-1.31905e-06
0.0135248
-1.23179e-06
0.0135251
-1.15077e-06
0.0135254
-1.07466e-06
0.0135257
-1.0042e-06
0.0135259
-9.37374e-07
0.0135262
-8.76286e-07
0.0135264
-8.17526e-07
0.0135266
-7.65052e-07
0.0135268
-7.12693e-07
0.0135269
-6.68355e-07
0.0135271
-6.20825e-07
0.0135273
-5.84995e-07
0.0135274
-5.40132e-07
0.0135275
-5.14121e-07
0.0135277
-4.69159e-07
0.0135278
-4.55289e-07
-4.0909e-07
0.0101887
-0.000354279
0.0105305
-0.000790573
0.0108515
-0.000918948
0.0111242
-0.000901671
0.0113506
-0.000842626
0.0115245
-0.000757686
0.0116463
-0.000656627
0.0117242
-0.000553656
0.011768
-0.000459771
0.0117866
-0.000379754
0.0117871
-0.000314093
0.0117751
-0.000261404
0.0117549
-0.000219699
0.0117298
-0.000186898
0.0117021
-0.000161058
0.0116732
-0.000140519
0.0116443
-0.000123993
0.011616
-0.000110476
0.0115886
-9.92199e-05
0.0115624
-8.96814e-05
0.0115376
-8.14706e-05
0.0115141
-7.43078e-05
0.0114919
-6.79905e-05
0.0114711
-6.237e-05
0.0114515
-5.7335e-05
0.0114332
-5.28002e-05
0.0114161
-4.86983e-05
0.0114
-4.4975e-05
0.011385
-4.15854e-05
0.0113711
-3.84918e-05
0.011358
-3.56621e-05
0.0113458
-3.30686e-05
0.0113344
-3.06872e-05
0.0113238
-2.84968e-05
0.0113139
-2.64792e-05
0.0113047
-2.46182e-05
0.0112961
-2.28993e-05
0.0112881
-2.13098e-05
0.0112806
-1.98386e-05
0.0112736
-1.84756e-05
0.0112671
-1.72117e-05
0.0112611
-1.60386e-05
0.0112554
-1.49494e-05
0.0112501
-1.39373e-05
0.0112452
-1.29964e-05
0.0112406
-1.2121e-05
0.0112364
-1.13064e-05
0.0112324
-1.05482e-05
0.0112286
-9.84214e-06
0.0112252
-9.1842e-06
0.0112219
-8.57107e-06
0.0112189
-7.99979e-06
0.0112161
-7.46727e-06
0.0112135
-6.97051e-06
0.011211
-6.5071e-06
0.0112087
-6.07505e-06
0.0112066
-5.67213e-06
0.0112046
-5.29602e-06
0.0112027
-4.94487e-06
0.011201
-4.61734e-06
0.0111994
-4.31187e-06
0.0111978
-4.02663e-06
0.0111964
-3.76013e-06
0.0111951
-3.51143e-06
0.0111939
-3.27951e-06
0.0111927
-3.06293e-06
0.0111916
-2.86046e-06
0.0111906
-2.6714e-06
0.0111897
-2.4951e-06
0.0111888
-2.33052e-06
0.011188
-2.17661e-06
0.0111873
-2.03277e-06
0.0111865
-1.89864e-06
0.0111859
-1.77351e-06
0.0111853
-1.65651e-06
0.0111847
-1.54705e-06
0.0111841
-1.44498e-06
0.0111836
-1.34979e-06
0.0111832
-1.26086e-06
0.0111827
-1.17758e-06
0.0111823
-1.0999e-06
0.0111819
-1.02741e-06
0.0111816
-9.59827e-07
0.0111812
-8.9641e-07
0.0111809
-8.37362e-07
0.0111806
-7.82016e-07
0.0111803
-7.30758e-07
0.0111801
-6.82279e-07
0.0111798
-6.3765e-07
0.0111796
-5.95073e-07
0.0111794
-5.56617e-07
0.0111792
-5.19011e-07
0.011179
-4.86104e-07
0.0111789
-4.52437e-07
0.0111787
-4.25106e-07
0.0111786
-3.94388e-07
0.0111784
-3.73356e-07
0.0111783
-3.44619e-07
0.0111782
-3.33351e-07
-3.04624e-07
0.0103395
-0.000693804
0.0105708
-0.0010218
0.0106063
-0.000954494
0.0105476
-0.000842943
0.0104223
-0.000717371
0.0102444
-0.000579724
0.0100394
-0.000451692
0.00982874
-0.000342978
0.00962514
-0.000256163
0.0094353
-0.00018992
0.00926243
-0.000141219
0.00910753
-0.00010651
0.00897015
-8.23202e-05
0.0088489
-6.56462e-05
0.00874197
-5.41273e-05
0.00864749
-4.604e-05
0.00856369
-4.01943e-05
0.00848901
-3.57928e-05
0.00842211
-3.23188e-05
0.00836188
-2.94493e-05
0.0083074
-2.69886e-05
0.00825791
-2.48203e-05
0.00821279
-2.28755e-05
0.00817154
-2.11124e-05
0.00813371
-1.95047e-05
0.00809894
-1.8034e-05
0.00806693
-1.66867e-05
0.0080374
-1.54514e-05
0.00801014
-1.43179e-05
0.00798492
-1.32771e-05
0.00796158
-1.23206e-05
0.00793995
-1.14407e-05
0.0079199
-1.06304e-05
0.00790128
-9.88336e-06
0.007884
-9.19376e-06
0.00786793
-8.55651e-06
0.007853
-7.96694e-06
0.00783911
-7.42091e-06
0.00782619
-6.91473e-06
0.00781416
-6.44512e-06
0.00780296
-6.00906e-06
0.00779252
-5.60382e-06
0.0077828
-5.22702e-06
0.00777374
-4.87652e-06
0.00776529
-4.55027e-06
0.00775742
-4.24641e-06
0.00775007
-3.96333e-06
0.00774323
-3.69959e-06
0.00773684
-3.45376e-06
0.00773088
-3.22447e-06
0.00772532
-3.01059e-06
0.00772013
-2.81114e-06
0.00771529
-2.6251e-06
0.00771077
-2.45143e-06
0.00770655
-2.28929e-06
0.00770261
-2.13801e-06
0.00769894
-1.99686e-06
0.00769551
-1.86503e-06
0.0076923
-1.74187e-06
0.00768931
-1.62692e-06
0.00768652
-1.51968e-06
0.00768391
-1.4195e-06
0.00768148
-1.32585e-06
0.00767921
-1.2384e-06
0.00767708
-1.15683e-06
0.0076751
-1.08064e-06
0.00767325
-1.00939e-06
0.00767152
-9.42812e-07
0.00766991
-8.80715e-07
0.0076684
-8.22745e-07
0.00766699
-7.68523e-07
0.00766568
-7.17822e-07
0.00766445
-6.70528e-07
0.0076633
-6.26406e-07
0.00766223
-5.85151e-07
0.00766123
-5.46545e-07
0.0076603
-5.10523e-07
0.00765942
-4.7693e-07
0.00765861
-4.45551e-07
0.00765785
-4.16158e-07
0.00765713
-3.88729e-07
0.00765647
-3.63126e-07
0.00765585
-3.39264e-07
0.00765527
-3.1687e-07
0.00765473
-2.96012e-07
0.00765422
-2.76456e-07
0.00765375
-2.58344e-07
0.00765331
-2.41224e-07
0.0076529
-2.25444e-07
0.00765251
-2.10422e-07
0.00765215
-1.9679e-07
0.00765182
-1.8358e-07
0.0076515
-1.71831e-07
0.00765121
-1.60179e-07
0.00765094
-1.50169e-07
0.00765068
-1.40093e-07
0.00765044
-1.31713e-07
0.00765022
-1.24172e-07
0.00765001
-1.18295e-07
-1.20803e-07
0.0093062
0.00828439
0.0073299
0.00648696
0.00576958
0.00518986
0.00473817
0.00439519
0.00413903
0.00394911
0.00380789
0.00370138
0.00361906
0.00355341
0.00349928
0.00345324
0.00341305
0.00337726
0.00334494
0.00331549
0.0032885
0.00326368
0.00324081
0.00321969
0.00320019
0.00318215
0.00316547
0.00315002
0.0031357
0.00312242
0.0031101
0.00309866
0.00308803
0.00307815
0.00306895
0.0030604
0.00305243
0.00304501
0.00303809
0.00303165
0.00302564
0.00302004
0.00301481
0.00300993
0.00300538
0.00300113
0.00299717
0.00299347
0.00299002
0.00298679
0.00298378
0.00298097
0.00297835
0.0029759
0.00297361
0.00297147
0.00296947
0.00296761
0.00296586
0.00296424
0.00296272
0.0029613
0.00295997
0.00295873
0.00295758
0.0029565
0.00295549
0.00295454
0.00295366
0.00295284
0.00295207
0.00295135
0.00295068
0.00295006
0.00294947
0.00294893
0.00294842
0.00294794
0.00294749
0.00294708
0.00294669
0.00294633
0.00294599
0.00294567
0.00294537
0.0029451
0.00294484
0.0029446
0.00294437
0.00294416
0.00294396
0.00294378
0.00294361
0.00294345
0.0029433
0.00294316
0.00294303
0.0029429
0.00294278
)
;

boundaryField
{
    inlet
    {
        type            calculated;
        value           nonuniform List<scalar> 10(-0.01 -0.01 -0.01 -0.01 -0.01 -0.01 -0.01 -0.01 -0.01 -0.01);
    }
    outlet
    {
        type            calculated;
        value           nonuniform List<scalar> 10(0.00294266 0.00764982 0.0111781 0.0135279 0.0147016 0.0147016 0.0135279 0.0111781 0.00764982 0.00294266);
    }
    top
    {
        type            calculated;
        value           uniform 0;
    }
    bottom
    {
        type            calculated;
        value           uniform 0;
    }
    frontAndBack
    {
        type            empty;
        value           nonuniform List<scalar> 0();
    }
}


// ************************************************************************* //
