/*--------------------------------*- C++ -*----------------------------------*\
| =========                 |                                                 |
| \\      /  F ield         | OpenFOAM: The Open Source CFD Toolbox           |
|  \\    /   O peration     | Version:  v2012                                 |
|   \\  /    A nd           | Website:  www.openfoam.com                      |
|    \\/     M anipulation  |                                                 |
\*---------------------------------------------------------------------------*/
FoamFile
{
    version     2.0;
    format      ascii;
    class       volScalarField;
    location    "0.25";
    object      T;
}
// * * * * * * * * * * * * * * * * * * * * * * * * * * * * * * * * * * * * * //

dimensions      [0 0 0 1 0 0 0];


internalField   nonuniform List<scalar> 
1000
(
300.193
300.401
300.63
300.885
301.166
301.474
301.806
302.159
302.526
302.901
303.278
303.655
304.026
304.39
304.746
305.092
305.429
305.757
306.075
306.384
306.684
306.975
307.258
307.533
307.801
308.061
308.313
308.559
308.799
309.032
309.26
309.481
309.697
309.908
310.114
310.316
310.513
310.705
310.893
311.078
311.258
311.435
311.608
311.779
311.945
312.109
312.27
312.428
312.584
312.737
312.887
313.035
313.18
313.324
313.465
313.604
313.741
313.876
314.01
314.141
314.271
314.399
314.525
314.65
314.773
314.895
315.015
315.133
315.25
315.366
315.48
315.592
315.703
315.813
315.921
316.027
316.132
316.236
316.337
316.438
316.536
316.633
316.728
316.822
316.914
317.004
317.093
317.18
317.265
317.349
317.431
317.511
317.59
317.667
317.742
317.816
317.888
317.959
318.028
318.092
300.016
300.056
300.111
300.178
300.253
300.334
300.416
300.498
300.579
300.66
300.74
300.82
300.902
300.987
301.074
301.165
301.259
301.356
301.456
301.56
301.666
301.775
301.885
301.998
302.111
302.226
302.343
302.46
302.577
302.696
302.814
302.933
303.052
303.171
303.29
303.409
303.528
303.646
303.764
303.881
303.998
304.115
304.231
304.346
304.461
304.575
304.688
304.801
304.912
305.024
305.134
305.244
305.353
305.461
305.568
305.675
305.781
305.886
305.99
306.094
306.197
306.299
306.4
306.501
306.601
306.7
306.799
306.896
306.993
307.09
307.185
307.28
307.374
307.468
307.56
307.652
307.744
307.834
307.924
308.013
308.101
308.188
308.275
308.361
308.446
308.53
308.613
308.696
308.777
308.858
308.938
309.017
309.095
309.172
309.248
309.323
309.397
309.47
309.543
309.612
300.001
300.006
300.016
300.03
300.049
300.07
300.093
300.116
300.139
300.161
300.183
300.204
300.225
300.246
300.268
300.289
300.311
300.334
300.358
300.382
300.407
300.434
300.461
300.488
300.517
300.547
300.578
300.609
300.642
300.675
300.709
300.744
300.78
300.816
300.853
300.891
300.93
300.969
301.009
301.05
301.091
301.133
301.176
301.219
301.262
301.306
301.351
301.396
301.442
301.488
301.534
301.581
301.628
301.676
301.724
301.772
301.82
301.869
301.919
301.968
302.018
302.068
302.118
302.169
302.219
302.27
302.321
302.373
302.424
302.476
302.528
302.58
302.632
302.684
302.736
302.788
302.841
302.893
302.946
302.998
303.051
303.104
303.157
303.209
303.262
303.315
303.367
303.42
303.473
303.525
303.578
303.63
303.682
303.734
303.786
303.838
303.89
303.942
303.993
304.044
300
300
300.001
300.004
300.007
300.011
300.015
300.02
300.026
300.031
300.037
300.042
300.048
300.053
300.059
300.065
300.07
300.076
300.082
300.088
300.094
300.1
300.107
300.113
300.12
300.127
300.134
300.142
300.15
300.157
300.166
300.174
300.183
300.191
300.201
300.21
300.22
300.23
300.24
300.25
300.261
300.272
300.283
300.295
300.307
300.319
300.331
300.344
300.357
300.37
300.384
300.398
300.412
300.427
300.441
300.456
300.472
300.487
300.503
300.52
300.536
300.553
300.57
300.587
300.605
300.623
300.641
300.659
300.678
300.697
300.716
300.735
300.755
300.775
300.795
300.816
300.836
300.857
300.878
300.9
300.921
300.943
300.965
300.988
301.01
301.033
301.056
301.079
301.102
301.125
301.149
301.173
301.197
301.221
301.245
301.27
301.295
301.319
301.344
301.369
300
300
300
300
300.001
300.001
300.001
300.002
300.003
300.004
300.005
300.006
300.007
300.008
300.009
300.01
300.011
300.012
300.014
300.015
300.016
300.018
300.019
300.021
300.022
300.024
300.025
300.027
300.029
300.03
300.032
300.034
300.036
300.038
300.04
300.042
300.044
300.047
300.049
300.051
300.054
300.056
300.059
300.062
300.065
300.068
300.071
300.074
300.077
300.08
300.083
300.087
300.09
300.094
300.098
300.102
300.106
300.11
300.114
300.118
300.123
300.127
300.132
300.137
300.142
300.147
300.152
300.157
300.162
300.168
300.174
300.179
300.185
300.191
300.197
300.203
300.21
300.216
300.223
300.23
300.237
300.244
300.251
300.258
300.265
300.273
300.281
300.288
300.296
300.304
300.313
300.321
300.329
300.338
300.347
300.356
300.365
300.374
300.383
300.392
300
300
300
300
300
300
300
300
300
300
300
300
300
300.001
300.001
300.001
300.001
300.001
300.001
300.001
300.002
300.002
300.002
300.002
300.002
300.003
300.003
300.003
300.004
300.004
300.004
300.005
300.005
300.005
300.006
300.006
300.007
300.007
300.007
300.008
300.009
300.009
300.01
300.01
300.011
300.011
300.012
300.013
300.013
300.014
300.015
300.016
300.017
300.017
300.018
300.019
300.02
300.021
300.022
300.023
300.024
300.025
300.026
300.028
300.029
300.03
300.031
300.033
300.034
300.036
300.037
300.038
300.04
300.042
300.043
300.045
300.047
300.048
300.05
300.052
300.054
300.056
300.058
300.06
300.062
300.064
300.066
300.069
300.071
300.073
300.076
300.078
300.081
300.083
300.086
300.089
300.092
300.094
300.097
300.1
300
300
300
300
300
300
300
300
300
300
300
300
300
300
300
300
300
300
300
300
300
300
300
300
300
300
300
300
300
300
300
300.001
300.001
300.001
300.001
300.001
300.001
300.001
300.001
300.001
300.001
300.001
300.001
300.001
300.002
300.002
300.002
300.002
300.002
300.002
300.002
300.003
300.003
300.003
300.003
300.003
300.004
300.004
300.004
300.004
300.004
300.005
300.005
300.005
300.005
300.006
300.006
300.006
300.007
300.007
300.007
300.008
300.008
300.009
300.009
300.009
300.01
300.01
300.011
300.011
300.012
300.012
300.013
300.013
300.014
300.014
300.015
300.016
300.016
300.017
300.017
300.018
300.019
300.02
300.02
300.021
300.022
300.023
300.024
300.024
300
300
300
300
300
300
300
300
300
300
300
300
300
300
300
300
300
300
300
300
300
300
300
300
300
300
300
300
300
300
300
300
300
300
300
300
300
300
300
300
300
300
300
300
300
300
300
300
300
300
300
300
300
300
300.001
300.001
300.001
300.001
300.001
300.001
300.001
300.001
300.001
300.001
300.001
300.001
300.001
300.001
300.001
300.001
300.002
300.002
300.002
300.002
300.002
300.002
300.002
300.002
300.002
300.002
300.003
300.003
300.003
300.003
300.003
300.003
300.003
300.004
300.004
300.004
300.004
300.004
300.005
300.005
300.005
300.005
300.005
300.006
300.006
300.006
300
300
300
300
300
300
300
300
300
300
300
300
300
300
300
300
300
300
300
300
300
300
300
300
300
300
300
300
300
300
300
300
300
300
300
300
300
300
300
300
300
300
300
300
300
300
300
300
300
300
300
300
300
300
300
300
300
300
300
300
300
300
300
300
300
300
300
300
300
300
300
300
300
300
300.001
300.001
300.001
300.001
300.001
300.001
300.001
300.001
300.001
300.001
300.001
300.001
300.001
300.001
300.001
300.001
300.001
300.001
300.001
300.001
300.002
300.002
300.002
300.002
300.002
300.002
300
300
300
300
300
300
300
300
300
300
300
300
300
300
300
300
300
300
300
300
300
300
300
300
300
300
300
300
300
300
300
300
300
300
300
300
300
300
300
300
300
300
300
300
300
300
300
300
300
300
300
300
300
300
300
300
300
300
300
300
300
300
300
300
300
300
300
300
300
300
300
300
300
300
300
300
300
300
300
300
300
300
300
300
300.001
300.001
300.001
300.001
300.001
300.001
300.001
300.001
300.001
300.001
300.001
300.001
300.001
300.001
300.001
300.001
)
;

boundaryField
{
    inlet
    {
        type            fixedValue;
        value           uniform 300;
    }
    outlet
    {
        type            zeroGradient;
    }
    top
    {
        type            zeroGradient;
    }
    bottom
    {
        type            uniformFixedGradient;
        gradient        uniform 1000;
        uniformGradient constant 1000;
        value           nonuniform List<scalar> 
100
(
305.193
305.401
305.63
305.885
306.166
306.474
306.806
307.159
307.526
307.901
308.278
308.655
309.026
309.39
309.746
310.092
310.429
310.757
311.075
311.384
311.684
311.975
312.258
312.533
312.801
313.061
313.313
313.559
313.799
314.032
314.26
314.481
314.697
314.908
315.114
315.316
315.513
315.705
315.893
316.078
316.258
316.435
316.608
316.779
316.945
317.109
317.27
317.428
317.584
317.737
317.887
318.035
318.18
318.324
318.465
318.604
318.741
318.876
319.01
319.141
319.271
319.399
319.525
319.65
319.773
319.895
320.015
320.133
320.25
320.366
320.48
320.592
320.703
320.813
320.921
321.027
321.132
321.236
321.337
321.438
321.536
321.633
321.728
321.822
321.914
322.004
322.093
322.18
322.265
322.349
322.431
322.511
322.59
322.667
322.742
322.816
322.888
322.959
323.028
323.092
)
;
    }
    frontAndBack
    {
        type            empty;
    }
}


// ************************************************************************* //
