/*--------------------------------*- C++ -*----------------------------------*\
| =========                 |                                                 |
| \\      /  F ield         | OpenFOAM: The Open Source CFD Toolbox           |
|  \\    /   O peration     | Version:  v2012                                 |
|   \\  /    A nd           | Website:  www.openfoam.com                      |
|    \\/     M anipulation  |                                                 |
\*---------------------------------------------------------------------------*/
FoamFile
{
    version     2.0;
    format      ascii;
    class       volVectorField;
    location    "0.25";
    object      U;
}
// * * * * * * * * * * * * * * * * * * * * * * * * * * * * * * * * * * * * * //

dimensions      [0 1 -1 0 0 0 0];


internalField   nonuniform List<vector> 
1000
(
(9.18908 0.358219 0)
(8.62714 0.621956 0)
(7.8706 0.625101 0)
(6.9536 0.545504 0)
(6.10897 0.445317 0)
(5.44116 0.34016 0)
(4.9343 0.241875 0)
(4.54794 0.161442 0)
(4.25446 0.102658 0)
(4.03473 0.0630415 0)
(3.87158 0.0379763 0)
(3.74962 0.0231034 0)
(3.65662 0.0149301 0)
(3.58363 0.0108512 0)
(3.52443 0.00906072 0)
(3.47482 0.00841052 0)
(3.43203 0.00823724 0)
(3.39427 0.0081931 0)
(3.36038 0.00811852 0)
(3.32961 0.00795801 0)
(3.30148 0.00770811 0)
(3.27564 0.00738709 0)
(3.25184 0.00701889 0)
(3.22989 0.00662566 0)
(3.20962 0.006225 0)
(3.19088 0.00582958 0)
(3.17355 0.00544772 0)
(3.1575 0.00508434 0)
(3.14264 0.00474192 0)
(3.12886 0.00442125 0)
(3.11608 0.00412209 0)
(3.10421 0.00384361 0)
(3.09319 0.00358465 0)
(3.08294 0.00334391 0)
(3.07342 0.00312006 0)
(3.06455 0.00291188 0)
(3.0563 0.00271815 0)
(3.04861 0.00253777 0)
(3.04145 0.00236974 0)
(3.03478 0.00221314 0)
(3.02856 0.00206715 0)
(3.02276 0.00193096 0)
(3.01735 0.00180387 0)
(3.0123 0.00168527 0)
(3.00759 0.00157458 0)
(3.0032 0.0014712 0)
(2.9991 0.00137463 0)
(2.99527 0.00128445 0)
(2.9917 0.00120024 0)
(2.98836 0.00112155 0)
(2.98525 0.00104799 0)
(2.98234 0.000979272 0)
(2.97962 0.000915106 0)
(2.97709 0.00085514 0)
(2.97472 0.000799047 0)
(2.97251 0.000746626 0)
(2.97044 0.000697695 0)
(2.96851 0.000651978 0)
(2.96671 0.000609194 0)
(2.96503 0.000569193 0)
(2.96346 0.000531869 0)
(2.96199 0.000497015 0)
(2.96062 0.000464389 0)
(2.95934 0.000433864 0)
(2.95814 0.000405386 0)
(2.95702 0.000378814 0)
(2.95598 0.000353943 0)
(2.955 0.000330653 0)
(2.95409 0.00030892 0)
(2.95324 0.00028866 0)
(2.95245 0.000269711 0)
(2.9517 0.00025195 0)
(2.95101 0.000235363 0)
(2.95036 0.000219916 0)
(2.94976 0.000205485 0)
(2.94919 0.000191951 0)
(2.94866 0.0001793 0)
(2.94817 0.000167518 0)
(2.94771 0.000156533 0)
(2.94728 0.000146225 0)
(2.94688 0.000136583 0)
(2.9465 0.00012759 0)
(2.94615 0.000119229 0)
(2.94582 0.000111372 0)
(2.94552 0.00010404 0)
(2.94523 9.71628e-05 0)
(2.94496 9.08111e-05 0)
(2.94471 8.48029e-05 0)
(2.94448 7.92572e-05 0)
(2.94426 7.39754e-05 0)
(2.94406 6.91903e-05 0)
(2.94387 6.45677e-05 0)
(2.94369 6.04306e-05 0)
(2.94353 5.63942e-05 0)
(2.94337 5.28474e-05 0)
(2.94323 4.95417e-05 0)
(2.94309 4.6547e-05 0)
(2.94296 4.47986e-05 0)
(2.94285 4.32091e-05 0)
(2.94267 4.74443e-05 0)
(10.0166 0.538194 0)
(10.3598 1.01284 0)
(10.5972 1.10737 0)
(10.6289 1.05922 0)
(10.5156 0.962287 0)
(10.3405 0.839341 0)
(10.1428 0.703271 0)
(9.93607 0.569813 0)
(9.72926 0.451075 0)
(9.53107 0.352367 0)
(9.34795 0.274016 0)
(9.1829 0.213872 0)
(9.03624 0.168845 0)
(8.90681 0.135697 0)
(8.79282 0.111477 0)
(8.69232 0.0937366 0)
(8.60344 0.0805693 0)
(8.52447 0.0705713 0)
(8.45392 0.0627524 0)
(8.39058 0.0564383 0)
(8.33341 0.0511809 0)
(8.28159 0.0466867 0)
(8.23442 0.0427642 0)
(8.19135 0.0392874 0)
(8.1519 0.036172 0)
(8.11568 0.0333597 0)
(8.08235 0.030808 0)
(8.05164 0.0284847 0)
(8.0233 0.0263637 0)
(7.9971 0.0244234 0)
(7.97286 0.0226452 0)
(7.95041 0.0210129 0)
(7.9296 0.0195123 0)
(7.91029 0.0181306 0)
(7.89236 0.0168568 0)
(7.87571 0.0156809 0)
(7.86023 0.0145941 0)
(7.84584 0.0135884 0)
(7.83245 0.0126568 0)
(7.81999 0.0117931 0)
(7.80839 0.0109916 0)
(7.79758 0.0102474 0)
(7.78751 0.00955577 0)
(7.77813 0.00891262 0)
(7.76939 0.00831433 0)
(7.76124 0.0077575 0)
(7.75364 0.00723892 0)
(7.74655 0.0067558 0)
(7.73994 0.00630568 0)
(7.73377 0.0058862 0)
(7.72802 0.00549502 0)
(7.72265 0.00513013 0)
(7.71764 0.00478986 0)
(7.71296 0.00447252 0)
(7.7086 0.00417635 0)
(7.70452 0.00389985 0)
(7.70072 0.00364185 0)
(7.69717 0.00340118 0)
(7.69386 0.00317647 0)
(7.69077 0.00296654 0)
(7.68788 0.00277057 0)
(7.68518 0.00258776 0)
(7.68266 0.00241706 0)
(7.68031 0.0022575 0)
(7.67811 0.00210849 0)
(7.67606 0.00196948 0)
(7.67415 0.00183969 0)
(7.67236 0.00171835 0)
(7.67069 0.00160495 0)
(7.66913 0.00149916 0)
(7.66768 0.00140043 0)
(7.66632 0.00130811 0)
(7.66505 0.00122179 0)
(7.66386 0.00114123 0)
(7.66275 0.0010661 0)
(7.66172 0.000995859 0)
(7.66075 0.00093016 0)
(7.65985 0.000868803 0)
(7.659 0.00081162 0)
(7.65822 0.000758171 0)
(7.65748 0.000708194 0)
(7.65679 0.000661445 0)
(7.65615 0.000617931 0)
(7.65555 0.000577209 0)
(7.65499 0.000539236 0)
(7.65447 0.000503564 0)
(7.65398 0.000470515 0)
(7.65352 0.000439378 0)
(7.6531 0.000410649 0)
(7.6527 0.000383282 0)
(7.65233 0.000358402 0)
(7.65198 0.000334351 0)
(7.65166 0.000312977 0)
(7.65135 0.00029166 0)
(7.65107 0.000273561 0)
(7.6508 0.000254652 0)
(7.65057 0.000239993 0)
(7.65031 0.000223653 0)
(7.65015 0.000214026 0)
(7.64983 0.000204139 0)
(10.0142 0.268249 0)
(10.2913 0.627914 0)
(10.6543 0.777366 0)
(10.9896 0.805972 0)
(11.2531 0.782852 0)
(11.4505 0.731539 0)
(11.5949 0.661113 0)
(11.6943 0.581621 0)
(11.7554 0.502968 0)
(11.7857 0.431507 0)
(11.7936 0.369728 0)
(11.7859 0.317716 0)
(11.7683 0.274518 0)
(11.7445 0.238868 0)
(11.7173 0.209476 0)
(11.6884 0.185158 0)
(11.6592 0.164881 0)
(11.6303 0.147795 0)
(11.6023 0.13323 0)
(11.5754 0.120671 0)
(11.5498 0.10973 0)
(11.5256 0.100111 0)
(11.5027 0.0915875 0)
(11.4812 0.083986 0)
(11.4611 0.0771695 0)
(11.4421 0.0710289 0)
(11.4244 0.0654759 0)
(11.4078 0.0604379 0)
(11.3923 0.0558543 0)
(11.3779 0.0516734 0)
(11.3644 0.0478516 0)
(11.3517 0.0443508 0)
(11.34 0.0411382 0)
(11.329 0.0381851 0)
(11.3187 0.0354666 0)
(11.3092 0.0329603 0)
(11.3003 0.0306468 0)
(11.292 0.0285089 0)
(11.2842 0.0265311 0)
(11.277 0.0246997 0)
(11.2703 0.0230023 0)
(11.264 0.021428 0)
(11.2582 0.0199669 0)
(11.2527 0.0186098 0)
(11.2476 0.0173486 0)
(11.2429 0.0161762 0)
(11.2384 0.0150856 0)
(11.2343 0.0140707 0)
(11.2305 0.0131259 0)
(11.2269 0.0122461 0)
(11.2235 0.0114267 0)
(11.2204 0.0106631 0)
(11.2175 0.00995141 0)
(11.2147 0.00928805 0)
(11.2122 0.00866966 0)
(11.2098 0.0080929 0)
(11.2076 0.00755484 0)
(11.2055 0.00705302 0)
(11.2036 0.006585 0)
(11.2018 0.00614826 0)
(11.2001 0.00574057 0)
(11.1986 0.00536015 0)
(11.1971 0.00500527 0)
(11.1957 0.00467403 0)
(11.1945 0.00436468 0)
(11.1933 0.00407588 0)
(11.1922 0.00380644 0)
(11.1911 0.00355492 0)
(11.1902 0.00331996 0)
(11.1893 0.0031005 0)
(11.1884 0.00289571 0)
(11.1876 0.00270456 0)
(11.1869 0.00252597 0)
(11.1862 0.00235908 0)
(11.1856 0.00220332 0)
(11.185 0.00205795 0)
(11.1844 0.00192217 0)
(11.1839 0.00179523 0)
(11.1834 0.00167675 0)
(11.1829 0.00156614 0)
(11.1825 0.00146293 0)
(11.1821 0.00136632 0)
(11.1817 0.00127625 0)
(11.1814 0.00119198 0)
(11.1811 0.0011136 0)
(11.1808 0.00103992 0)
(11.1805 0.000971637 0)
(11.1802 0.000907141 0)
(11.18 0.00084795 0)
(11.1797 0.000791258 0)
(11.1795 0.000740172 0)
(11.1793 0.000689909 0)
(11.1791 0.000646511 0)
(11.179 0.000601224 0)
(11.1788 0.000565553 0)
(11.1786 0.000523419 0)
(11.1785 0.000496578 0)
(11.1783 0.000455455 0)
(11.1783 0.000440121 0)
(11.1781 0.000398817 0)
(10.0073 0.118147 0)
(10.1785 0.308609 0)
(10.4622 0.414344 0)
(10.799 0.451936 0)
(11.1327 0.455024 0)
(11.4378 0.440803 0)
(11.7089 0.4144 0)
(11.9457 0.379737 0)
(12.1486 0.341957 0)
(12.3197 0.305369 0)
(12.4627 0.27222 0)
(12.5823 0.243139 0)
(12.6831 0.217979 0)
(12.7689 0.196337 0)
(12.8426 0.177738 0)
(12.9065 0.161697 0)
(12.9624 0.147756 0)
(13.0118 0.135523 0)
(13.0556 0.124679 0)
(13.0948 0.114975 0)
(13.13 0.106222 0)
(13.1618 0.0982751 0)
(13.1905 0.0910241 0)
(13.2166 0.0843818 0)
(13.2403 0.078279 0)
(13.262 0.0726597 0)
(13.2818 0.0674771 0)
(13.2999 0.0626912 0)
(13.3165 0.0582673 0)
(13.3318 0.0541747 0)
(13.3459 0.0503861 0)
(13.3589 0.0468767 0)
(13.3708 0.0436242 0)
(13.3819 0.0406082 0)
(13.3921 0.0378101 0)
(13.4016 0.035213 0)
(13.4103 0.0328014 0)
(13.4185 0.0305612 0)
(13.426 0.0284794 0)
(13.4331 0.026544 0)
(13.4396 0.0247441 0)
(13.4456 0.0230698 0)
(13.4513 0.0215118 0)
(13.4565 0.0200617 0)
(13.4614 0.0187114 0)
(13.4659 0.017454 0)
(13.4702 0.0162829 0)
(13.4741 0.0151917 0)
(13.4778 0.0141749 0)
(13.4812 0.0132271 0)
(13.4844 0.0123438 0)
(13.4874 0.0115203 0)
(13.4902 0.0107523 0)
(13.4928 0.010036 0)
(13.4952 0.00936809 0)
(13.4975 0.00874513 0)
(13.4996 0.00816387 0)
(13.5016 0.00762146 0)
(13.5034 0.00711548 0)
(13.5051 0.00664345 0)
(13.5067 0.00620286 0)
(13.5082 0.00579156 0)
(13.5096 0.00540776 0)
(13.5109 0.00504966 0)
(13.5122 0.00471537 0)
(13.5133 0.00440318 0)
(13.5144 0.00411176 0)
(13.5154 0.00383985 0)
(13.5163 0.003586 0)
(13.5172 0.00334887 0)
(13.518 0.00312742 0)
(13.5187 0.00292076 0)
(13.5194 0.00272786 0)
(13.5201 0.00254762 0)
(13.5207 0.00237925 0)
(13.5213 0.00222208 0)
(13.5218 0.00207543 0)
(13.5223 0.00193837 0)
(13.5228 0.00181037 0)
(13.5232 0.00169078 0)
(13.5236 0.0015793 0)
(13.524 0.00147502 0)
(13.5244 0.00137779 0)
(13.5247 0.00128667 0)
(13.525 0.00120206 0)
(13.5253 0.00112246 0)
(13.5256 0.00104889 0)
(13.5258 0.000979042 0)
(13.5261 0.000915359 0)
(13.5263 0.000853814 0)
(13.5265 0.000799169 0)
(13.5267 0.000744231 0)
(13.5269 0.000698242 0)
(13.527 0.000648143 0)
(13.5272 0.000611119 0)
(13.5273 0.000563634 0)
(13.5274 0.000536763 0)
(13.5276 0.000489149 0)
(13.5277 0.000474398 0)
(13.5279 0.000423397 0)
(10.0059 0.0346292 0)
(10.1369 0.0936602 0)
(10.3703 0.130468 0)
(10.6742 0.145633 0)
(11.0003 0.148545 0)
(11.3164 0.14565 0)
(11.6107 0.138883 0)
(11.8807 0.129192 0)
(12.1252 0.118065 0)
(12.3439 0.106964 0)
(12.5381 0.0967274 0)
(12.7103 0.0876282 0)
(12.864 0.0796597 0)
(13.0021 0.0727221 0)
(13.1271 0.0666881 0)
(13.2409 0.0614193 0)
(13.345 0.0567807 0)
(13.4407 0.0526532 0)
(13.5289 0.0489394 0)
(13.6105 0.045564 0)
(13.686 0.0424707 0)
(13.756 0.0396178 0)
(13.821 0.036974 0)
(13.8814 0.0345158 0)
(13.9375 0.0322252 0)
(13.9897 0.0300877 0)
(14.0383 0.0280916 0)
(14.0835 0.0262268 0)
(14.1255 0.0244845 0)
(14.1646 0.0228567 0)
(14.2011 0.0213361 0)
(14.235 0.0199158 0)
(14.2667 0.0185894 0)
(14.2961 0.0173509 0)
(14.3236 0.0161946 0)
(14.3492 0.0151152 0)
(14.373 0.0141078 0)
(14.3952 0.0131674 0)
(14.416 0.0122898 0)
(14.4353 0.0114709 0)
(14.4533 0.0107067 0)
(14.4701 0.00999346 0)
(14.4858 0.00932796 0)
(14.5005 0.00870701 0)
(14.5141 0.00812753 0)
(14.5268 0.00758672 0)
(14.5387 0.00708209 0)
(14.5498 0.00661127 0)
(14.5602 0.00617187 0)
(14.5698 0.0057617 0)
(14.5788 0.00537896 0)
(14.5873 0.00502186 0)
(14.5951 0.00468857 0)
(14.6025 0.00437737 0)
(14.6093 0.00408692 0)
(14.6157 0.00381595 0)
(14.6217 0.00356303 0)
(14.6272 0.00332682 0)
(14.6324 0.00310629 0)
(14.6373 0.00290057 0)
(14.6418 0.00270857 0)
(14.646 0.00252921 0)
(14.65 0.0023617 0)
(14.6537 0.00220542 0)
(14.6571 0.00205961 0)
(14.6604 0.00192338 0)
(14.6634 0.0017961 0)
(14.6662 0.00167733 0)
(14.6688 0.00156652 0)
(14.6712 0.00146302 0)
(14.6735 0.00136628 0)
(14.6757 0.00127595 0)
(14.6777 0.00119171 0)
(14.6795 0.00111304 0)
(14.6813 0.00103949 0)
(14.6829 0.000970767 0)
(14.6844 0.000906691 0)
(14.6858 0.000846865 0)
(14.6871 0.000790958 0)
(14.6884 0.000738665 0)
(14.6895 0.000689946 0)
(14.6906 0.000644407 0)
(14.6916 0.000601962 0)
(14.6926 0.000562122 0)
(14.6934 0.000525159 0)
(14.6943 0.000490362 0)
(14.695 0.000458277 0)
(14.6957 0.000427704 0)
(14.6964 0.000399947 0)
(14.697 0.000372956 0)
(14.6976 0.000349221 0)
(14.6982 0.000325047 0)
(14.6987 0.000305167 0)
(14.6992 0.000283002 0)
(14.6996 0.000267139 0)
(14.7 0.000246003 0)
(14.7003 0.000234648 0)
(14.7008 0.000213325 0)
(14.701 0.000207123 0)
(14.7016 0.000184012 0)
(10.0059 -0.0346292 0)
(10.1369 -0.0936602 0)
(10.3703 -0.130468 0)
(10.6742 -0.145633 0)
(11.0003 -0.148545 0)
(11.3164 -0.14565 0)
(11.6107 -0.138883 0)
(11.8807 -0.129192 0)
(12.1252 -0.118065 0)
(12.3439 -0.106964 0)
(12.5381 -0.0967274 0)
(12.7103 -0.0876282 0)
(12.864 -0.0796597 0)
(13.0021 -0.0727221 0)
(13.1271 -0.0666881 0)
(13.2409 -0.0614193 0)
(13.345 -0.0567807 0)
(13.4407 -0.0526532 0)
(13.5289 -0.0489393 0)
(13.6105 -0.045564 0)
(13.686 -0.0424707 0)
(13.756 -0.0396178 0)
(13.821 -0.036974 0)
(13.8814 -0.0345158 0)
(13.9375 -0.0322252 0)
(13.9897 -0.0300877 0)
(14.0383 -0.0280916 0)
(14.0835 -0.0262268 0)
(14.1255 -0.0244845 0)
(14.1646 -0.0228567 0)
(14.2011 -0.0213361 0)
(14.235 -0.0199158 0)
(14.2667 -0.0185894 0)
(14.2961 -0.0173509 0)
(14.3236 -0.0161946 0)
(14.3492 -0.0151152 0)
(14.373 -0.0141077 0)
(14.3952 -0.0131674 0)
(14.416 -0.0122899 0)
(14.4353 -0.0114709 0)
(14.4533 -0.0107066 0)
(14.4701 -0.00999347 0)
(14.4858 -0.00932802 0)
(14.5005 -0.008707 0)
(14.5141 -0.00812745 0)
(14.5268 -0.00758671 0)
(14.5387 -0.00708216 0)
(14.5498 -0.00661127 0)
(14.5602 -0.00617176 0)
(14.5698 -0.00576167 0)
(14.5788 -0.00537904 0)
(14.5873 -0.00502189 0)
(14.5951 -0.00468845 0)
(14.6024 -0.0043773 0)
(14.6093 -0.004087 0)
(14.6157 -0.003816 0)
(14.6217 -0.00356293 0)
(14.6272 -0.00332671 0)
(14.6324 -0.00310635 0)
(14.6373 -0.00290065 0)
(14.6418 -0.0027085 0)
(14.646 -0.00252909 0)
(14.65 -0.00236173 0)
(14.6537 -0.00220554 0)
(14.6571 -0.0020596 0)
(14.6604 -0.00192328 0)
(14.6634 -0.0017961 0)
(14.6662 -0.00167743 0)
(14.6688 -0.00156657 0)
(14.6712 -0.00146295 0)
(14.6735 -0.00136625 0)
(14.6757 -0.00127604 0)
(14.6777 -0.00119178 0)
(14.6795 -0.00111299 0)
(14.6813 -0.00103944 0)
(14.6829 -0.000970827 0)
(14.6844 -0.000906784 0)
(14.6858 -0.000846866 0)
(14.6871 -0.000790928 0)
(14.6884 -0.000738707 0)
(14.6895 -0.000690035 0)
(14.6906 -0.000644441 0)
(14.6916 -0.000601948 0)
(14.6926 -0.000562126 0)
(14.6934 -0.000525199 0)
(14.6943 -0.000490381 0)
(14.695 -0.000458258 0)
(14.6957 -0.000427682 0)
(14.6964 -0.000399944 0)
(14.697 -0.00037295 0)
(14.6976 -0.0003492 0)
(14.6982 -0.000325022 0)
(14.6987 -0.000305151 0)
(14.6992 -0.000282992 0)
(14.6996 -0.000267136 0)
(14.7 -0.000246006 0)
(14.7003 -0.000234655 0)
(14.7008 -0.000213335 0)
(14.701 -0.000207153 0)
(14.7016 -0.000184045 0)
(10.0073 -0.118147 0)
(10.1785 -0.308609 0)
(10.4622 -0.414344 0)
(10.799 -0.451936 0)
(11.1327 -0.455024 0)
(11.4378 -0.440803 0)
(11.7089 -0.4144 0)
(11.9457 -0.379737 0)
(12.1486 -0.341957 0)
(12.3197 -0.305369 0)
(12.4627 -0.27222 0)
(12.5823 -0.243139 0)
(12.6831 -0.217979 0)
(12.7689 -0.196337 0)
(12.8426 -0.177738 0)
(12.9065 -0.161697 0)
(12.9624 -0.147756 0)
(13.0118 -0.135523 0)
(13.0556 -0.124679 0)
(13.0948 -0.114975 0)
(13.13 -0.106222 0)
(13.1618 -0.0982751 0)
(13.1905 -0.0910241 0)
(13.2166 -0.0843818 0)
(13.2403 -0.078279 0)
(13.262 -0.0726597 0)
(13.2818 -0.0674771 0)
(13.2999 -0.0626912 0)
(13.3165 -0.0582673 0)
(13.3318 -0.0541747 0)
(13.3459 -0.0503861 0)
(13.3589 -0.0468767 0)
(13.3708 -0.0436242 0)
(13.3819 -0.0406081 0)
(13.3921 -0.0378101 0)
(13.4016 -0.035213 0)
(13.4103 -0.0328014 0)
(13.4185 -0.0305612 0)
(13.426 -0.0284793 0)
(13.4331 -0.026544 0)
(13.4396 -0.0247441 0)
(13.4456 -0.0230698 0)
(13.4513 -0.0215118 0)
(13.4565 -0.0200617 0)
(13.4614 -0.0187115 0)
(13.4659 -0.017454 0)
(13.4702 -0.0162828 0)
(13.4741 -0.0151917 0)
(13.4778 -0.0141749 0)
(13.4812 -0.0132272 0)
(13.4844 -0.0123438 0)
(13.4874 -0.0115203 0)
(13.4902 -0.0107523 0)
(13.4928 -0.010036 0)
(13.4952 -0.00936804 0)
(13.4975 -0.00874508 0)
(13.4996 -0.00816386 0)
(13.5016 -0.00762146 0)
(13.5034 -0.00711542 0)
(13.5051 -0.00664337 0)
(13.5067 -0.00620285 0)
(13.5082 -0.00579158 0)
(13.5096 -0.00540773 0)
(13.5109 -0.00504962 0)
(13.5122 -0.00471538 0)
(13.5133 -0.00440324 0)
(13.5144 -0.00411179 0)
(13.5154 -0.00383983 0)
(13.5163 -0.003586 0)
(13.5172 -0.00334891 0)
(13.518 -0.00312744 0)
(13.5187 -0.00292072 0)
(13.5194 -0.00272782 0)
(13.5201 -0.00254763 0)
(13.5207 -0.00237927 0)
(13.5213 -0.00222205 0)
(13.5218 -0.00207539 0)
(13.5223 -0.00193838 0)
(13.5228 -0.00181041 0)
(13.5232 -0.00169079 0)
(13.5236 -0.0015793 0)
(13.524 -0.00147504 0)
(13.5244 -0.00137784 0)
(13.5247 -0.00128671 0)
(13.525 -0.00120208 0)
(13.5253 -0.00112248 0)
(13.5256 -0.00104892 0)
(13.5258 -0.000979071 0)
(13.5261 -0.000915364 0)
(13.5263 -0.00085381 0)
(13.5265 -0.000799171 0)
(13.5267 -0.000744234 0)
(13.5269 -0.000698234 0)
(13.527 -0.000648134 0)
(13.5272 -0.000611114 0)
(13.5273 -0.000563634 0)
(13.5274 -0.000536765 0)
(13.5276 -0.000489154 0)
(13.5277 -0.000474411 0)
(13.5279 -0.000423409 0)
(10.0142 -0.268249 0)
(10.2913 -0.627914 0)
(10.6543 -0.777366 0)
(10.9896 -0.805972 0)
(11.2531 -0.782852 0)
(11.4505 -0.731539 0)
(11.5949 -0.661113 0)
(11.6943 -0.581621 0)
(11.7554 -0.502968 0)
(11.7857 -0.431507 0)
(11.7936 -0.369728 0)
(11.7859 -0.317716 0)
(11.7683 -0.274518 0)
(11.7445 -0.238868 0)
(11.7173 -0.209476 0)
(11.6884 -0.185158 0)
(11.6592 -0.164881 0)
(11.6303 -0.147795 0)
(11.6023 -0.13323 0)
(11.5754 -0.120671 0)
(11.5498 -0.10973 0)
(11.5256 -0.100111 0)
(11.5027 -0.0915874 0)
(11.4812 -0.083986 0)
(11.4611 -0.0771695 0)
(11.4421 -0.0710289 0)
(11.4244 -0.0654759 0)
(11.4078 -0.060438 0)
(11.3923 -0.0558543 0)
(11.3779 -0.0516734 0)
(11.3644 -0.0478516 0)
(11.3517 -0.0443508 0)
(11.34 -0.0411382 0)
(11.329 -0.0381851 0)
(11.3187 -0.0354665 0)
(11.3092 -0.0329603 0)
(11.3003 -0.0306469 0)
(11.292 -0.0285089 0)
(11.2842 -0.0265311 0)
(11.277 -0.0246997 0)
(11.2703 -0.0230023 0)
(11.264 -0.021428 0)
(11.2582 -0.0199668 0)
(11.2527 -0.0186098 0)
(11.2476 -0.0173487 0)
(11.2429 -0.0161762 0)
(11.2384 -0.0150855 0)
(11.2343 -0.0140707 0)
(11.2305 -0.013126 0)
(11.2269 -0.0122462 0)
(11.2235 -0.0114266 0)
(11.2204 -0.0106631 0)
(11.2175 -0.00995157 0)
(11.2147 -0.00928812 0)
(11.2122 -0.00866948 0)
(11.2098 -0.00809275 0)
(11.2076 -0.00755495 0)
(11.2055 -0.00705312 0)
(11.2036 -0.00658482 0)
(11.2018 -0.00614804 0)
(11.2001 -0.00574064 0)
(11.1986 -0.00536031 0)
(11.1971 -0.00500519 0)
(11.1957 -0.00467383 0)
(11.1945 -0.00436472 0)
(11.1933 -0.00407611 0)
(11.1922 -0.00380647 0)
(11.1911 -0.00355475 0)
(11.1902 -0.00331993 0)
(11.1893 -0.00310068 0)
(11.1884 -0.00289578 0)
(11.1876 -0.00270438 0)
(11.1869 -0.00252583 0)
(11.1862 -0.00235917 0)
(11.1856 -0.00220341 0)
(11.185 -0.00205783 0)
(11.1844 -0.00192201 0)
(11.1839 -0.00179527 0)
(11.1834 -0.00167688 0)
(11.1829 -0.00156612 0)
(11.1825 -0.00146282 0)
(11.1821 -0.00136634 0)
(11.1817 -0.00127638 0)
(11.1814 -0.00119204 0)
(11.1811 -0.00111356 0)
(11.1808 -0.00103992 0)
(11.1805 -0.000971724 0)
(11.1802 -0.000907207 0)
(11.18 -0.000847938 0)
(11.1797 -0.000791237 0)
(11.1795 -0.000740198 0)
(11.1793 -0.000689943 0)
(11.1791 -0.000646509 0)
(11.179 -0.000601203 0)
(11.1788 -0.000565546 0)
(11.1786 -0.000523423 0)
(11.1785 -0.000496578 0)
(11.1783 -0.000455449 0)
(11.1783 -0.000440107 0)
(11.1781 -0.000398805 0)
(10.0166 -0.538194 0)
(10.3598 -1.01284 0)
(10.5972 -1.10737 0)
(10.6289 -1.05922 0)
(10.5156 -0.962287 0)
(10.3405 -0.839341 0)
(10.1428 -0.703271 0)
(9.93607 -0.569813 0)
(9.72926 -0.451075 0)
(9.53107 -0.352367 0)
(9.34795 -0.274016 0)
(9.1829 -0.213872 0)
(9.03624 -0.168845 0)
(8.90681 -0.135697 0)
(8.79282 -0.111477 0)
(8.69232 -0.0937366 0)
(8.60344 -0.0805693 0)
(8.52447 -0.0705713 0)
(8.45392 -0.0627524 0)
(8.39058 -0.0564383 0)
(8.33341 -0.0511809 0)
(8.28159 -0.0466867 0)
(8.23442 -0.0427642 0)
(8.19135 -0.0392874 0)
(8.1519 -0.036172 0)
(8.11568 -0.0333597 0)
(8.08235 -0.030808 0)
(8.05164 -0.0284847 0)
(8.0233 -0.0263637 0)
(7.9971 -0.0244234 0)
(7.97286 -0.0226452 0)
(7.95041 -0.0210129 0)
(7.9296 -0.0195123 0)
(7.91029 -0.0181306 0)
(7.89236 -0.0168568 0)
(7.87571 -0.0156809 0)
(7.86023 -0.0145941 0)
(7.84584 -0.0135883 0)
(7.83245 -0.0126568 0)
(7.81999 -0.0117931 0)
(7.80839 -0.0109917 0)
(7.79758 -0.0102474 0)
(7.78751 -0.00955572 0)
(7.77813 -0.00891267 0)
(7.76939 -0.00831441 0)
(7.76124 -0.00775747 0)
(7.75364 -0.00723886 0)
(7.74655 -0.00675586 0)
(7.73994 -0.0063058 0)
(7.73377 -0.00588618 0)
(7.72802 -0.00549491 0)
(7.72265 -0.00513015 0)
(7.71764 -0.00478998 0)
(7.71296 -0.0044725 0)
(7.7086 -0.00417619 0)
(7.70452 -0.0038998 0)
(7.70072 -0.00364196 0)
(7.69717 -0.00340118 0)
(7.69386 -0.0031763 0)
(7.69077 -0.00296645 0)
(7.68788 -0.00277069 0)
(7.68518 -0.00258783 0)
(7.68266 -0.00241694 0)
(7.68031 -0.0022574 0)
(7.67811 -0.00210859 0)
(7.67606 -0.0019696 0)
(7.67415 -0.00183963 0)
(7.67236 -0.00171822 0)
(7.67069 -0.00160499 0)
(7.66913 -0.00149928 0)
(7.66768 -0.0014004 0)
(7.66632 -0.00130796 0)
(7.66505 -0.00122175 0)
(7.66386 -0.00114132 0)
(7.66275 -0.00106611 0)
(7.66172 -0.000995737 0)
(7.66075 -0.000930092 0)
(7.65985 -0.000868876 0)
(7.659 -0.000811682 0)
(7.65822 -0.000758118 0)
(7.65748 -0.000708139 0)
(7.65679 -0.000661498 0)
(7.65615 -0.000618013 0)
(7.65555 -0.000577212 0)
(7.65499 -0.000539202 0)
(7.65447 -0.000503587 0)
(7.65398 -0.000470576 0)
(7.65352 -0.000439399 0)
(7.6531 -0.00041063 0)
(7.6527 -0.000383281 0)
(7.65233 -0.000358429 0)
(7.65198 -0.000334368 0)
(7.65166 -0.00031297 0)
(7.65135 -0.00029165 0)
(7.65107 -0.000273561 0)
(7.6508 -0.000254652 0)
(7.65057 -0.000239986 0)
(7.65031 -0.00022364 0)
(7.65015 -0.000214003 0)
(7.64983 -0.000204121 0)
(9.18908 -0.358219 0)
(8.62714 -0.621956 0)
(7.8706 -0.625101 0)
(6.9536 -0.545504 0)
(6.10897 -0.445317 0)
(5.44116 -0.34016 0)
(4.9343 -0.241875 0)
(4.54794 -0.161442 0)
(4.25446 -0.102658 0)
(4.03473 -0.0630415 0)
(3.87158 -0.0379763 0)
(3.74962 -0.0231034 0)
(3.65662 -0.0149301 0)
(3.58363 -0.0108512 0)
(3.52443 -0.00906072 0)
(3.47482 -0.00841052 0)
(3.43203 -0.00823724 0)
(3.39427 -0.0081931 0)
(3.36038 -0.00811852 0)
(3.32961 -0.00795801 0)
(3.30148 -0.00770811 0)
(3.27564 -0.00738709 0)
(3.25184 -0.00701889 0)
(3.22989 -0.00662566 0)
(3.20962 -0.006225 0)
(3.19088 -0.00582958 0)
(3.17355 -0.00544772 0)
(3.1575 -0.00508435 0)
(3.14264 -0.00474192 0)
(3.12886 -0.00442125 0)
(3.11608 -0.00412209 0)
(3.10421 -0.00384362 0)
(3.09319 -0.00358465 0)
(3.08294 -0.0033439 0)
(3.07342 -0.00312006 0)
(3.06455 -0.00291188 0)
(3.0563 -0.00271814 0)
(3.04861 -0.00253776 0)
(3.04145 -0.00236974 0)
(3.03478 -0.00221315 0)
(3.02856 -0.00206714 0)
(3.02276 -0.00193094 0)
(3.01735 -0.00180387 0)
(3.0123 -0.00168529 0)
(3.00759 -0.00157458 0)
(3.0032 -0.00147118 0)
(2.9991 -0.00137463 0)
(2.99527 -0.00128448 0)
(2.9917 -0.00120025 0)
(2.98836 -0.00112153 0)
(2.98525 -0.00104798 0)
(2.98234 -0.000979298 0)
(2.97962 -0.000915116 0)
(2.97709 -0.000855102 0)
(2.97472 -0.000799018 0)
(2.97251 -0.000746647 0)
(2.97044 -0.000697715 0)
(2.96851 -0.000651946 0)
(2.96671 -0.000609159 0)
(2.96503 -0.000569212 0)
(2.96346 -0.000531902 0)
(2.96199 -0.000496997 0)
(2.96062 -0.000464351 0)
(2.95934 -0.000433873 0)
(2.95814 -0.000405422 0)
(2.95702 -0.000378808 0)
(2.95598 -0.000353902 0)
(2.955 -0.000330645 0)
(2.95409 -0.000308949 0)
(2.95324 -0.000288664 0)
(2.95245 -0.000269672 0)
(2.9517 -0.000251927 0)
(2.95101 -0.000235385 0)
(2.95036 -0.000219931 0)
(2.94976 -0.000205459 0)
(2.94919 -0.000191926 0)
(2.94866 -0.000179314 0)
(2.94817 -0.000167543 0)
(2.94771 -0.000156525 0)
(2.94728 -0.000146204 0)
(2.94688 -0.00013659 0)
(2.9465 -0.000127613 0)
(2.94615 -0.000119232 0)
(2.94582 -0.000111359 0)
(2.94552 -0.000104039 0)
(2.94523 -9.71783e-05 0)
(2.94496 -9.0818e-05 0)
(2.94471 -8.47958e-05 0)
(2.94448 -7.92544e-05 0)
(2.94426 -7.39839e-05 0)
(2.94406 -6.9197e-05 0)
(2.94387 -6.45658e-05 0)
(2.94369 -6.04278e-05 0)
(2.94353 -5.63956e-05 0)
(2.94337 -5.28484e-05 0)
(2.94323 -4.95385e-05 0)
(2.94309 -4.65416e-05 0)
(2.94296 -4.47915e-05 0)
(2.94285 -4.31995e-05 0)
(2.94267 -4.74379e-05 0)
)
;

boundaryField
{
    inlet
    {
        type            fixedValue;
        value           uniform (10 0 0);
    }
    outlet
    {
        type            pressureInletOutletVelocity;
        value           nonuniform List<vector> 10((2.94267 4.74443e-05 0) (7.64983 0.000204139 0) (11.1781 0.000398817 0) (13.5279 0.000423397 0) (14.7016 0.000184012 0) (14.7016 -0.000184045 0) (13.5279 -0.000423409 0) (11.1781 -0.000398805 0) (7.64983 -0.000204121 0) (2.94267 -4.74379e-05 0));
    }
    top
    {
        type            noSlip;
    }
    bottom
    {
        type            noSlip;
    }
    frontAndBack
    {
        type            empty;
    }
}


// ************************************************************************* //
