/*--------------------------------*- C++ -*----------------------------------*\
| =========                 |                                                 |
| \\      /  F ield         | OpenFOAM: The Open Source CFD Toolbox           |
|  \\    /   O peration     | Version:  v2012                                 |
|   \\  /    A nd           | Website:  www.openfoam.com                      |
|    \\/     M anipulation  |                                                 |
\*---------------------------------------------------------------------------*/
FoamFile
{
    version     2.0;
    format      ascii;
    class       volScalarField;
    location    "0.5";
    object      p;
}
// * * * * * * * * * * * * * * * * * * * * * * * * * * * * * * * * * * * * * //

dimensions      [0 2 -2 0 0 0 0];


internalField   nonuniform List<scalar> 
1000
(
167.56
155.452
145.854
139.488
134.637
130.39
126.637
123.419
120.679
118.296
116.156
114.18
112.312
110.518
108.777
107.075
105.407
103.769
102.158
100.573
99.0139
97.4783
95.9657
94.4746
93.004
91.5526
90.1192
88.7027
87.3019
85.9158
84.5434
83.1839
81.8363
80.4999
79.1739
77.8576
76.5505
75.2519
73.9612
72.678
71.4017
70.1319
68.8682
67.6102
66.3575
65.1098
63.8667
62.6279
61.3932
60.1623
58.935
57.711
56.4901
55.2721
54.0568
52.8441
51.6337
50.4256
49.2195
48.0153
46.813
45.6124
44.4133
43.2158
42.0196
40.8247
39.631
38.4385
37.247
36.0565
34.8669
33.6782
32.4902
31.3031
30.1166
28.9308
27.7456
26.561
25.3769
24.1933
23.0102
21.8276
20.6453
19.4634
18.2819
17.1007
15.9198
14.7392
13.5589
12.3788
11.199
10.0193
8.83994
7.66073
6.4817
5.30284
4.12414
2.94558
1.76718
0.588884
155.838
150.345
144.25
139.093
134.766
130.869
127.31
124.133
121.337
118.859
116.619
114.549
112.601
110.742
108.951
107.212
105.517
103.859
102.234
100.638
99.0705
97.5286
96.0107
94.5153
93.041
91.5864
90.1502
88.7311
87.328
85.9398
84.5656
83.2043
81.8552
80.5174
79.1901
77.8727
76.5645
75.2648
73.9733
72.6892
71.4121
70.1416
68.8772
67.6186
66.3653
65.117
63.8734
62.6342
61.3991
60.1678
58.9401
57.7158
56.4946
55.2763
54.0607
52.8477
51.6371
50.4287
49.2224
48.0181
46.8156
45.6148
44.4156
43.2179
42.0215
40.8265
39.6327
38.4401
37.2485
36.0579
34.8682
33.6794
32.4914
31.3041
30.1176
28.9317
27.7465
26.5618
25.3777
24.194
23.0109
21.8282
20.6459
19.4639
18.2824
17.1011
15.9202
14.7396
13.5592
12.3791
11.1993
10.0197
8.84023
7.661
6.48195
5.30307
4.12435
2.94576
1.76735
0.588986
149.756
147.138
143.299
139.185
135.277
131.618
128.188
125.016
122.13
119.52
117.145
114.956
112.911
110.977
109.129
107.349
105.624
103.944
102.303
100.697
99.1209
97.5725
96.0495
94.55
93.0721
91.6145
90.1756
88.7542
87.349
85.959
84.5831
83.2204
81.8699
80.5309
79.2025
77.8841
76.575
75.2746
73.9822
72.6975
71.4198
70.1487
68.8838
67.6247
66.371
65.1223
63.8784
62.6388
61.4034
60.1718
58.9438
57.7192
56.4977
55.2792
54.0635
52.8503
51.6395
50.4309
49.2245
48.02
46.8174
45.6165
44.4172
43.2193
42.0229
40.8278
39.6339
38.4412
37.2495
36.0588
34.8691
33.6802
32.4922
31.3049
30.1183
28.9324
27.7471
26.5624
25.3782
24.1945
23.0113
21.8286
20.6463
19.4643
18.2827
17.1015
15.9205
14.7399
13.5595
12.3794
11.1995
10.0199
8.84043
7.66119
6.48212
5.30323
4.1245
2.94589
1.76744
0.589055
146.815
145.265
142.578
139.186
135.606
132.11
128.78
125.645
122.732
120.053
117.594
115.325
113.21
111.217
109.321
107.503
105.748
104.046
102.388
100.769
99.1822
97.6256
96.096
94.591
93.1087
91.6472
90.205
88.7808
87.3731
85.9809
84.6031
83.2386
81.8866
80.5462
79.2166
77.897
76.5869
75.2855
73.9924
72.7068
71.4284
70.1567
68.8913
67.6316
66.3774
65.1282
63.8839
62.6439
61.4081
60.1762
58.9479
57.723
56.5013
55.2825
54.0666
52.8532
51.6422
50.4335
49.2268
48.0222
46.8194
45.6184
44.4189
43.221
42.0245
40.8292
39.6353
38.4424
37.2507
36.0599
34.8701
33.6812
32.4931
31.3057
30.1191
28.9331
27.7478
26.563
25.3788
24.1951
23.0119
21.8291
20.6467
19.4647
18.2831
17.1018
15.9209
14.7402
13.5598
12.3797
11.1998
10.0201
8.84065
7.6614
6.48231
5.30341
4.12465
2.94605
1.76755
0.58919
145.542
144.346
142.123
139.094
135.708
132.308
129.039
125.938
123.028
120.327
117.835
115.53
113.381
111.36
109.439
107.601
105.83
104.115
102.447
100.819
99.2263
97.6644
96.1305
94.6218
93.1364
91.6722
90.2277
88.8014
87.392
85.9981
84.6188
83.253
81.8998
80.5583
79.2278
77.9073
76.5964
75.2943
74.0005
72.7143
71.4354
70.1632
68.8972
67.6371
66.3825
65.133
63.8883
62.648
61.4119
60.1798
58.9512
57.7261
56.5042
55.2852
54.069
52.8555
51.6443
50.4355
49.2287
48.024
46.8211
45.6199
44.4203
43.2223
42.0257
40.8304
39.6363
38.4434
37.2516
36.0608
34.8709
33.6819
32.4938
31.3064
30.1197
28.9337
27.7483
26.5635
25.3793
24.1955
23.0123
21.8295
20.6471
19.4651
18.2834
17.1021
15.9211
14.7404
13.56
12.3799
11.2
10.0203
8.84083
7.66157
6.48247
5.30356
4.12478
2.94618
1.76765
0.589319
145.542
144.346
142.123
139.094
135.708
132.308
129.039
125.938
123.028
120.327
117.835
115.53
113.381
111.36
109.439
107.601
105.83
104.115
102.447
100.819
99.2263
97.6644
96.1305
94.6218
93.1364
91.6722
90.2277
88.8014
87.392
85.9981
84.6188
83.253
81.8998
80.5583
79.2278
77.9073
76.5964
75.2943
74.0005
72.7143
71.4354
70.1632
68.8972
67.6371
66.3825
65.133
63.8883
62.648
61.4119
60.1798
58.9512
57.7261
56.5042
55.2852
54.069
52.8555
51.6443
50.4355
49.2287
48.024
46.8211
45.6199
44.4203
43.2223
42.0257
40.8304
39.6363
38.4434
37.2516
36.0608
34.8709
33.6819
32.4938
31.3064
30.1197
28.9337
27.7483
26.5635
25.3793
24.1955
23.0123
21.8294
20.6471
19.4651
18.2834
17.1021
15.9211
14.7404
13.56
12.3799
11.2
10.0203
8.84083
7.66157
6.48247
5.30356
4.12478
2.94619
1.76766
0.589319
146.815
145.265
142.578
139.186
135.606
132.11
128.78
125.645
122.732
120.053
117.594
115.325
113.21
111.217
109.321
107.503
105.748
104.046
102.388
100.769
99.1822
97.6256
96.096
94.591
93.1087
91.6472
90.205
88.7808
87.3731
85.9809
84.6031
83.2386
81.8866
80.5462
79.2166
77.897
76.5869
75.2855
73.9924
72.7068
71.4284
70.1567
68.8912
67.6316
66.3774
65.1282
63.8838
62.6439
61.4081
60.1762
58.9479
57.723
56.5013
55.2825
54.0666
52.8532
51.6422
50.4335
49.2268
48.0222
46.8194
45.6184
44.4189
43.221
42.0245
40.8292
39.6353
38.4424
37.2507
36.0599
34.8701
33.6812
32.4931
31.3057
30.1191
28.9331
27.7478
26.563
25.3788
24.1951
23.0118
21.8291
20.6467
19.4647
18.2831
17.1018
15.9209
14.7402
13.5598
12.3797
11.1998
10.0201
8.84065
7.6614
6.48231
5.30341
4.12465
2.94605
1.76755
0.589191
149.756
147.138
143.299
139.185
135.277
131.618
128.188
125.016
122.13
119.52
117.145
114.956
112.911
110.977
109.129
107.349
105.624
103.944
102.303
100.697
99.1209
97.5725
96.0495
94.55
93.0721
91.6145
90.1756
88.7542
87.349
85.959
84.5831
83.2204
81.8699
80.5309
79.2025
77.8841
76.575
75.2746
73.9822
72.6975
71.4198
70.1487
68.8838
67.6247
66.371
65.1223
63.8784
62.6388
61.4034
60.1718
58.9438
57.7192
56.4977
55.2792
54.0635
52.8503
51.6395
50.4309
49.2245
48.02
46.8174
45.6165
44.4172
43.2193
42.0229
40.8278
39.6339
38.4412
37.2495
36.0588
34.8691
33.6802
32.4922
31.3049
30.1183
28.9324
27.7471
26.5624
25.3782
24.1945
23.0113
21.8286
20.6462
19.4643
18.2827
17.1015
15.9205
14.7399
13.5595
12.3794
11.1995
10.0199
8.84043
7.66119
6.48212
5.30323
4.1245
2.9459
1.76744
0.589055
155.838
150.345
144.25
139.093
134.766
130.869
127.31
124.133
121.337
118.859
116.619
114.549
112.601
110.742
108.951
107.212
105.517
103.859
102.234
100.638
99.0705
97.5286
96.0107
94.5153
93.041
91.5864
90.1502
88.7311
87.328
85.9398
84.5656
83.2043
81.8552
80.5174
79.1901
77.8727
76.5645
75.2648
73.9733
72.6892
71.4121
70.1416
68.8772
67.6186
66.3653
65.117
63.8734
62.6342
61.3991
60.1678
58.9401
57.7158
56.4946
55.2763
54.0607
52.8477
51.6371
50.4287
49.2224
48.0181
46.8156
45.6148
44.4156
43.2179
42.0215
40.8265
39.6327
38.4401
37.2485
36.0579
34.8682
33.6794
32.4914
31.3041
30.1176
28.9317
27.7465
26.5618
25.3777
24.194
23.0109
21.8282
20.6458
19.4639
18.2824
17.1011
15.9202
14.7396
13.5592
12.3791
11.1993
10.0197
8.84023
7.661
6.48195
5.30307
4.12435
2.94577
1.76735
0.588987
167.56
155.452
145.854
139.488
134.637
130.39
126.637
123.419
120.679
118.296
116.156
114.18
112.312
110.518
108.777
107.075
105.407
103.769
102.158
100.573
99.0138
97.4783
95.9657
94.4746
93.004
91.5526
90.1192
88.7027
87.3019
85.9158
84.5434
83.1839
81.8363
80.4999
79.1739
77.8576
76.5505
75.2519
73.9612
72.678
71.4017
70.1319
68.8682
67.6102
66.3575
65.1098
63.8667
62.6279
61.3932
60.1623
58.935
57.711
56.4901
55.2721
54.0568
52.8441
51.6337
50.4256
49.2195
48.0153
46.813
45.6124
44.4133
43.2158
42.0196
40.8247
39.631
38.4385
37.247
36.0565
34.8669
33.6782
32.4903
31.3031
30.1166
28.9308
27.7456
26.561
25.3769
24.1933
23.0102
21.8275
20.6453
19.4634
18.2819
17.1007
15.9198
14.7392
13.5589
12.3788
11.199
10.0193
8.83994
7.66073
6.4817
5.30284
4.12414
2.94558
1.76718
0.588884
)
;

boundaryField
{
    inlet
    {
        type            zeroGradient;
    }
    outlet
    {
        type            fixedValue;
        value           uniform 0;
    }
    top
    {
        type            zeroGradient;
    }
    bottom
    {
        type            zeroGradient;
    }
    frontAndBack
    {
        type            empty;
    }
}


// ************************************************************************* //
