/*--------------------------------*- C++ -*----------------------------------*\
| =========                 |                                                 |
| \\      /  F ield         | OpenFOAM: The Open Source CFD Toolbox           |
|  \\    /   O peration     | Version:  v2012                                 |
|   \\  /    A nd           | Website:  www.openfoam.com                      |
|    \\/     M anipulation  |                                                 |
\*---------------------------------------------------------------------------*/
FoamFile
{
    version     2.0;
    format      ascii;
    class       surfaceScalarField;
    location    "0.5";
    object      phi;
}
// * * * * * * * * * * * * * * * * * * * * * * * * * * * * * * * * * * * * * //

dimensions      [0 3 -1 0 0 0 0];
oriented        oriented;


internalField   nonuniform List<scalar> 
1890
(
0.0093062
0.000693804
0.00828439
0.0010218
0.0073299
0.000954494
0.00648696
0.000842943
0.00576958
0.000717371
0.00518986
0.000579724
0.00473817
0.000451692
0.00439519
0.000342978
0.00413903
0.000256163
0.00394911
0.00018992
0.00380789
0.000141219
0.00370138
0.00010651
0.00361906
8.23202e-05
0.00355341
6.56462e-05
0.00349928
5.41273e-05
0.00345324
4.604e-05
0.00341305
4.01943e-05
0.00337726
3.57928e-05
0.00334494
3.23188e-05
0.00331549
2.94493e-05
0.0032885
2.69886e-05
0.00326368
2.48203e-05
0.0032408
2.28755e-05
0.00321969
2.11124e-05
0.00320019
1.95047e-05
0.00318215
1.8034e-05
0.00316547
1.66867e-05
0.00315002
1.54514e-05
0.0031357
1.43179e-05
0.00312242
1.32771e-05
0.0031101
1.23206e-05
0.00309866
1.14407e-05
0.00308803
1.06304e-05
0.00307815
9.88335e-06
0.00306895
9.19378e-06
0.0030604
8.55652e-06
0.00305243
7.96693e-06
0.00304501
7.4209e-06
0.00303809
6.91476e-06
0.00303165
6.44516e-06
0.00302564
6.00905e-06
0.00302003
5.6038e-06
0.00301481
5.22704e-06
0.00300993
4.87655e-06
0.00300538
4.55026e-06
0.00300113
4.24637e-06
0.00299717
3.96333e-06
0.00299347
3.69961e-06
0.00299002
3.45374e-06
0.00298679
3.22442e-06
0.00298378
3.01057e-06
0.00298097
2.81117e-06
0.00297835
2.6251e-06
0.0029759
2.45139e-06
0.00297361
2.28928e-06
0.00297147
2.13805e-06
0.00296947
1.99688e-06
0.00296761
1.86501e-06
0.00296586
1.74187e-06
0.00296424
1.62696e-06
0.00296272
1.5197e-06
0.0029613
1.41947e-06
0.00295997
1.32583e-06
0.00295873
1.23841e-06
0.00295758
1.15683e-06
0.0029565
1.08061e-06
0.00295549
1.00936e-06
0.00295454
9.42815e-07
0.00295366
8.80727e-07
0.00295284
8.22731e-07
0.00295207
7.68503e-07
0.00295135
7.17837e-07
0.00295068
6.70563e-07
0.00295006
6.26421e-07
0.00294947
5.85149e-07
0.00294893
5.46563e-07
0.00294842
5.10557e-07
0.00294794
4.76944e-07
0.00294749
4.45537e-07
0.00294708
4.16146e-07
0.00294669
3.8873e-07
0.00294632
3.63118e-07
0.00294599
3.39233e-07
0.00294567
3.16831e-07
0.00294537
2.95983e-07
0.0029451
2.76429e-07
0.00294484
2.58306e-07
0.0029446
2.41181e-07
0.00294437
2.2541e-07
0.00294416
2.10397e-07
0.00294396
1.96768e-07
0.00294378
1.83559e-07
0.00294361
1.71817e-07
0.00294345
1.60175e-07
0.0029433
1.50175e-07
0.00294316
1.40103e-07
0.00294303
1.31729e-07
0.0029429
1.24197e-07
0.00294278
1.18331e-07
1.20836e-07
0.0103395
0.000354279
0.0105708
0.000790573
0.0106063
0.000918948
0.0105476
0.000901671
0.0104223
0.000842626
0.0102444
0.000757686
0.0100394
0.000656627
0.00982874
0.000553656
0.00962513
0.000459771
0.0094353
0.000379754
0.00926243
0.000314093
0.00910753
0.000261404
0.00897015
0.000219699
0.0088489
0.000186898
0.00874197
0.000161058
0.00864749
0.000140519
0.00856369
0.000123993
0.00848901
0.000110476
0.00842211
9.92199e-05
0.00836188
8.96814e-05
0.0083074
8.14707e-05
0.00825791
7.43078e-05
0.00821279
6.79905e-05
0.00817154
6.237e-05
0.0081337
5.7335e-05
0.00809894
5.28002e-05
0.00806693
4.86983e-05
0.0080374
4.4975e-05
0.00801014
4.15854e-05
0.00798492
3.84918e-05
0.00796158
3.56621e-05
0.00793995
3.30686e-05
0.0079199
3.06872e-05
0.00790128
2.84968e-05
0.007884
2.64792e-05
0.00786793
2.46182e-05
0.007853
2.28993e-05
0.00783911
2.13099e-05
0.00782619
1.98386e-05
0.00781416
1.84756e-05
0.00780296
1.72117e-05
0.00779252
1.60387e-05
0.0077828
1.49494e-05
0.00777374
1.39373e-05
0.00776529
1.29964e-05
0.00775742
1.2121e-05
0.00775007
1.13064e-05
0.00774323
1.05481e-05
0.00773684
9.84203e-06
0.00773088
9.18417e-06
0.00772532
8.57107e-06
0.00772013
7.99971e-06
0.00771529
7.46713e-06
0.00771077
6.97048e-06
0.00770655
6.50719e-06
0.00770261
6.07507e-06
0.00769894
5.67206e-06
0.00769551
5.29603e-06
0.0076923
4.94503e-06
0.00768931
4.61746e-06
0.00768652
4.31183e-06
0.00768391
4.02659e-06
0.00768148
3.76025e-06
0.00767921
3.51155e-06
0.00767708
3.27944e-06
0.0076751
3.06281e-06
0.00767325
2.86049e-06
0.00767152
2.6715e-06
0.00766991
2.49506e-06
0.0076684
2.33038e-06
0.00766699
2.17659e-06
0.00766568
2.03289e-06
0.00766445
1.8987e-06
0.0076633
1.77344e-06
0.00766223
1.65648e-06
0.00766123
1.54718e-06
0.00766029
1.44508e-06
0.00765942
1.34975e-06
0.00765861
1.26078e-06
0.00765785
1.17761e-06
0.00765713
1.09995e-06
0.00765647
1.02735e-06
0.00765585
9.59696e-07
0.00765527
8.96331e-07
0.00765473
8.37331e-07
0.00765422
7.81934e-07
0.00765375
7.30615e-07
0.00765331
6.82161e-07
0.0076529
6.3759e-07
0.00765251
5.95019e-07
0.00765215
5.56539e-07
0.00765182
5.18946e-07
0.0076515
4.86087e-07
0.00765121
4.52449e-07
0.00765094
4.25125e-07
0.00765068
3.94411e-07
0.00765044
3.73402e-07
0.00765022
3.44682e-07
0.00765
3.33431e-07
3.0469e-07
0.0101887
0.000165575
0.0105305
0.000448791
0.0108515
0.000597982
0.0111242
0.00062895
0.0113506
0.000616219
0.0115245
0.000583781
0.0116463
0.000534784
0.0117242
0.00047583
0.011768
0.000415927
0.0117866
0.000361114
0.0117871
0.000313617
0.0117751
0.00027346
0.0117549
0.000239897
0.0117298
0.00021199
0.0117021
0.000188773
0.0116732
0.000169334
0.0116443
0.000152893
0.011616
0.000138812
0.0115886
0.000126594
0.0115624
0.000115864
0.0115376
0.000106345
0.0115141
9.7827e-05
0.0114919
9.01534e-05
0.0114711
8.32034e-05
0.0114515
7.68826e-05
0.0114332
7.11156e-05
0.0114161
6.58403e-05
0.0114
6.10049e-05
0.011385
5.65651e-05
0.0113711
5.24823e-05
0.011358
4.8723e-05
0.0113458
4.52574e-05
0.0113344
4.2059e-05
0.0113238
3.91043e-05
0.0113139
3.63721e-05
0.0113047
3.38436e-05
0.0112961
3.15018e-05
0.0112881
2.93311e-05
0.0112806
2.73177e-05
0.0112736
2.54491e-05
0.0112671
2.37141e-05
0.0112611
2.2102e-05
0.0112554
2.06034e-05
0.0112501
1.92099e-05
0.0112452
1.79136e-05
0.0112406
1.67072e-05
0.0112364
1.5584e-05
0.0112324
1.4538e-05
0.0112286
1.35639e-05
0.0112252
1.26564e-05
0.0112219
1.18105e-05
0.0112189
1.1022e-05
0.0112161
1.0287e-05
0.0112135
9.60185e-06
0.011211
8.96278e-06
0.0112087
8.36658e-06
0.0112066
7.81053e-06
0.0112046
7.29195e-06
0.0112027
6.80807e-06
0.011201
6.35637e-06
0.0111994
5.93486e-06
0.0111978
5.54166e-06
0.0111964
5.17471e-06
0.0111951
4.83204e-06
0.0111939
4.51211e-06
0.0111927
4.21358e-06
0.0111916
3.93499e-06
0.0111906
3.67479e-06
0.0111897
3.43175e-06
0.0111888
3.2049e-06
0.011188
2.99322e-06
0.0111872
2.79551e-06
0.0111865
2.61079e-06
0.0111859
2.4383e-06
0.0111853
2.27735e-06
0.0111847
2.12704e-06
0.0111841
1.9866e-06
0.0111836
1.85538e-06
0.0111832
1.73297e-06
0.0111827
1.61861e-06
0.0111823
1.51186e-06
0.0111819
1.41196e-06
0.0111816
1.3189e-06
0.0111812
1.23177e-06
0.0111809
1.15074e-06
0.0111806
1.0745e-06
0.0111803
1.004e-06
0.0111801
9.37251e-07
0.0111798
8.76213e-07
0.0111796
8.17411e-07
0.0111794
7.64917e-07
0.0111792
7.12616e-07
0.011179
6.68345e-07
0.0111789
6.20832e-07
0.0111787
5.85008e-07
0.0111786
5.40167e-07
0.0111784
5.14195e-07
0.0111783
4.69238e-07
0.0111782
4.5538e-07
4.09166e-07
0.0100972
6.83936e-05
0.010347
0.000199011
0.0106625
0.000282474
0.0109828
0.000308666
0.0112902
0.000308743
0.0115753
0.000298758
0.011829
0.000281013
0.0120479
0.000256988
0.0122333
0.00023052
0.0123892
0.000205146
0.0125203
0.000182562
0.0126308
0.000163
0.0127244
0.000146225
0.0128045
0.000131903
0.0128736
0.000119674
0.0129338
0.000109175
0.0129866
0.000100069
0.0130333
9.20764e-05
0.013075
8.49752e-05
0.0131122
7.85986e-05
0.0131457
7.28223e-05
0.013176
6.75539e-05
0.0132034
6.27239e-05
0.0132284
5.82789e-05
0.0132511
5.4177e-05
0.0132718
5.03844e-05
0.0132908
4.68731e-05
0.0133082
4.36192e-05
0.0133241
4.06015e-05
0.0133388
3.78013e-05
0.0133523
3.52017e-05
0.0133648
3.27875e-05
0.0133763
3.05446e-05
0.0133869
2.84602e-05
0.0133968
2.65222e-05
0.0134059
2.47201e-05
0.0134144
2.30438e-05
0.0134222
2.14843e-05
0.0134295
2.00326e-05
0.0134363
1.86812e-05
0.0134426
1.7423e-05
0.0134484
1.62514e-05
0.0134539
1.51599e-05
0.0134589
1.41427e-05
0.0134637
1.31951e-05
0.013468
1.23121e-05
0.0134721
1.1489e-05
0.013476
1.07214e-05
0.0134795
1.00057e-05
0.0134828
9.33863e-06
0.0134859
8.71655e-06
0.0134888
8.13606e-06
0.0134915
7.5945e-06
0.013494
7.08955e-06
0.0134964
6.61863e-06
0.0134986
6.179e-06
0.0135006
5.7686e-06
0.0135025
5.38579e-06
0.0135043
5.02879e-06
0.0135059
4.69549e-06
0.0135075
4.38414e-06
0.0135089
4.0936e-06
0.0135103
3.82266e-06
0.0135116
3.56975e-06
0.0135127
3.3334e-06
0.0135138
3.11268e-06
0.0135149
2.90685e-06
0.0135158
2.71478e-06
0.0135167
2.53528e-06
0.0135176
2.36753e-06
0.0135183
2.21105e-06
0.0135191
2.06508e-06
0.0135197
1.9287e-06
0.0135204
1.80116e-06
0.013521
1.68214e-06
0.0135215
1.57113e-06
0.0135221
1.46748e-06
0.0135225
1.3705e-06
0.013523
1.27997e-06
0.0135234
1.19548e-06
0.0135238
1.1167e-06
0.0135242
1.0429e-06
0.0135245
9.74101e-07
0.0135248
9.0967e-07
0.0135251
8.49891e-07
0.0135254
7.93554e-07
0.0135257
7.41518e-07
0.0135259
6.92073e-07
0.0135262
6.4715e-07
0.0135264
6.03551e-07
0.0135266
5.65054e-07
0.0135268
5.26031e-07
0.0135269
4.9384e-07
0.0135271
4.58114e-07
0.0135273
4.32495e-07
0.0135274
3.98293e-07
0.0135275
3.8016e-07
0.0135277
3.4508e-07
0.0135278
3.35384e-07
3.00863e-07
0.0100684
3.96029e-13
0.0102674
1.21861e-12
0.0105499
1.76747e-12
0.0108585
1.90719e-12
0.0111673
1.61526e-12
0.011466
8.24268e-13
0.0117471
-2.74586e-13
0.012004
-1.05419e-12
0.0122346
-1.45811e-12
0.0124397
-2.37083e-12
0.0126223
-3.95404e-12
0.0127853
-4.30581e-12
0.0129315
-2.91147e-12
0.0130634
-3.2712e-12
0.0131831
-6.41145e-12
0.0132923
-6.49929e-12
0.0133923
-9.74835e-13
0.0134844
5.40748e-13
0.0135694
-7.35888e-12
0.013648
-1.04349e-11
0.0137208
2.30858e-12
0.0137883
1.21043e-11
0.0138511
-2.54708e-12
0.0139094
-1.70491e-11
0.0139635
4.57347e-12
0.0140139
3.24285e-11
0.0140608
1.23708e-11
0.0141044
-2.90671e-11
0.014145
-7.76339e-12
0.0141828
5.07917e-11
0.014218
3.83482e-11
0.0142508
-3.72869e-11
0.0142813
-3.8425e-11
0.0143098
4.98389e-11
0.0143363
7.55187e-11
0.014361
-3.03345e-11
0.0143841
-8.46903e-11
0.0144056
2.35682e-11
0.0144256
1.12922e-10
0.0144443
4.92342e-12
0.0144617
-1.31016e-10
0.014478
-3.58459e-11
0.0144931
1.25796e-10
0.0145073
5.56236e-11
0.0145205
-1.43591e-10
0.0145328
-1.19536e-10
0.0145443
8.62184e-11
0.014555
1.04214e-10
0.014565
-1.00554e-10
0.0145743
-1.73697e-10
0.014583
2.57082e-11
0.0145912
1.43091e-10
0.0145988
-3.28445e-11
0.0146059
-1.89668e-10
0.0146125
-5.40547e-11
0.0146187
1.61195e-10
0.0146244
5.6136e-11
0.0146298
-1.43853e-10
0.0146348
-8.34164e-11
0.0146395
1.36862e-10
0.0146439
1.43592e-10
0.014648
-5.03916e-11
0.0146518
-9.14049e-11
0.0146554
8.81363e-11
0.0146587
1.78351e-10
0.0146619
4.07083e-11
0.0146648
-7.67087e-11
0.0146675
5.5812e-11
0.01467
1.80323e-10
0.0146724
9.06319e-11
0.0146746
-5.87543e-11
0.0146767
-1.76229e-11
0.0146786
9.37873e-11
0.0146804
7.48075e-11
0.0146821
-6.35478e-11
0.0146836
-7.88177e-11
0.0146851
2.17699e-11
0.0146865
5.71096e-11
0.0146878
-4.42362e-11
0.0146889
-1.06886e-10
0.0146901
-5.12493e-11
0.0146911
-3.74388e-12
0.0146921
-6.25577e-11
0.014693
-1.35295e-10
0.0146938
-1.22662e-10
0.0146946
-7.56947e-11
0.0146954
-8.83191e-11
0.0146961
-1.33861e-10
0.0146967
-1.34097e-10
0.0146973
-8.58592e-11
0.0146979
-5.39177e-11
0.0146984
-5.2049e-11
0.0146989
-2.91946e-11
0.0146994
1.86022e-11
0.0146998
6.68523e-11
0.0147002
8.27906e-11
0.0147006
1.05961e-10
0.0147009
9.24238e-11
0.0147013
1.15064e-10
9.80642e-11
0.0100684
-6.83936e-05
0.0102674
-0.000199011
0.0105499
-0.000282474
0.0108585
-0.000308666
0.0111673
-0.000308743
0.011466
-0.000298758
0.0117471
-0.000281013
0.012004
-0.000256988
0.0122346
-0.00023052
0.0124397
-0.000205146
0.0126223
-0.000182562
0.0127853
-0.000163
0.0129315
-0.000146225
0.0130634
-0.000131903
0.0131831
-0.000119674
0.0132923
-0.000109175
0.0133923
-0.000100069
0.0134844
-9.20764e-05
0.0135694
-8.49753e-05
0.013648
-7.85986e-05
0.0137208
-7.28223e-05
0.0137883
-6.75539e-05
0.0138511
-6.27239e-05
0.0139094
-5.82789e-05
0.0139635
-5.4177e-05
0.0140139
-5.03844e-05
0.0140608
-4.68731e-05
0.0141044
-4.36192e-05
0.014145
-4.06015e-05
0.0141828
-3.78013e-05
0.014218
-3.52017e-05
0.0142508
-3.27875e-05
0.0142813
-3.05446e-05
0.0143098
-2.84601e-05
0.0143363
-2.65221e-05
0.014361
-2.47201e-05
0.0143841
-2.30439e-05
0.0144056
-2.14842e-05
0.0144256
-2.00325e-05
0.0144443
-1.86812e-05
0.0144617
-1.74231e-05
0.014478
-1.62514e-05
0.0144931
-1.51598e-05
0.0145073
-1.41427e-05
0.0145205
-1.31952e-05
0.0145328
-1.23122e-05
0.0145443
-1.1489e-05
0.014555
-1.07213e-05
0.014565
-1.00059e-05
0.0145743
-9.33884e-06
0.014583
-8.71657e-06
0.0145912
-8.13598e-06
0.0145988
-7.59458e-06
0.0146059
-7.08977e-06
0.0146125
-6.61867e-06
0.0146187
-6.17887e-06
0.0146244
-5.76855e-06
0.0146298
-5.38593e-06
0.0146348
-5.02885e-06
0.0146395
-4.69532e-06
0.0146439
-4.38398e-06
0.014648
-4.09361e-06
0.0146518
-3.82268e-06
0.0146554
-3.56957e-06
0.0146587
-3.33314e-06
0.0146619
-3.11258e-06
0.0146648
-2.90685e-06
0.0146675
-2.71467e-06
0.01467
-2.53503e-06
0.0146724
-2.36739e-06
0.0146746
-2.21106e-06
0.0146767
-2.06506e-06
0.0146786
-1.92855e-06
0.0146804
-1.80107e-06
0.0146821
-1.68219e-06
0.0146836
-1.57121e-06
0.0146851
-1.46747e-06
0.0146865
-1.37047e-06
0.0146878
-1.28005e-06
0.0146889
-1.19563e-06
0.0146901
-1.11681e-06
0.0146911
-1.04296e-06
0.0146921
-9.74221e-07
0.014693
-9.09876e-07
0.0146938
-8.50101e-07
0.0146946
-7.93726e-07
0.0146954
-7.41703e-07
0.0146961
-6.92304e-07
0.0146967
-6.47377e-07
0.0146973
-6.03719e-07
0.0146979
-5.6517e-07
0.0146984
-5.26118e-07
0.0146989
-4.9388e-07
0.0146994
-4.58082e-07
0.0146998
-4.32383e-07
0.0147002
-3.98147e-07
0.0147006
-3.79966e-07
0.0147009
-3.44904e-07
0.0147013
-3.3517e-07
-3.00681e-07
0.0100972
-0.000165575
0.010347
-0.000448791
0.0106625
-0.000597982
0.0109828
-0.00062895
0.0112902
-0.000616219
0.0115753
-0.000583781
0.011829
-0.000534784
0.0120479
-0.00047583
0.0122333
-0.000415927
0.0123892
-0.000361114
0.0125203
-0.000313617
0.0126308
-0.00027346
0.0127244
-0.000239897
0.0128045
-0.00021199
0.0128736
-0.000188773
0.0129338
-0.000169334
0.0129866
-0.000152893
0.0130333
-0.000138812
0.013075
-0.000126594
0.0131122
-0.000115864
0.0131457
-0.000106345
0.013176
-9.7827e-05
0.0132034
-9.01533e-05
0.0132284
-8.32034e-05
0.0132511
-7.68826e-05
0.0132718
-7.11156e-05
0.0132908
-6.58403e-05
0.0133082
-6.10049e-05
0.0133241
-5.65651e-05
0.0133388
-5.24824e-05
0.0133523
-4.8723e-05
0.0133648
-4.52573e-05
0.0133763
-4.2059e-05
0.0133869
-3.91043e-05
0.0133968
-3.63721e-05
0.0134059
-3.38435e-05
0.0134144
-3.15017e-05
0.0134222
-2.93311e-05
0.0134295
-2.73178e-05
0.0134363
-2.54491e-05
0.0134426
-2.3714e-05
0.0134484
-2.2102e-05
0.0134539
-2.06036e-05
0.0134589
-1.92099e-05
0.0134637
-1.79135e-05
0.013468
-1.67072e-05
0.0134721
-1.55842e-05
0.013476
-1.45382e-05
0.0134795
-1.35638e-05
0.0134828
-1.26563e-05
0.0134859
-1.18106e-05
0.0134888
-1.10222e-05
0.0134915
-1.0287e-05
0.013494
-9.60172e-06
0.0134964
-8.96282e-06
0.0134986
-8.36677e-06
0.0135006
-7.81055e-06
0.0135025
-7.29177e-06
0.0135043
-6.80797e-06
0.0135059
-6.35647e-06
0.0135075
-5.9349e-06
0.0135089
-5.54148e-06
0.0135103
-5.17451e-06
0.0135116
-4.83203e-06
0.0135127
-4.51213e-06
0.0135138
-4.21343e-06
0.0135149
-3.93476e-06
0.0135158
-3.67471e-06
0.0135167
-3.43178e-06
0.0135176
-3.20483e-06
0.0135183
-2.99303e-06
0.0135191
-2.79542e-06
0.0135197
-2.61084e-06
0.0135204
-2.43832e-06
0.013521
-2.27727e-06
0.0135215
-2.12698e-06
0.0135221
-1.98668e-06
0.0135225
-1.85548e-06
0.013523
-1.73299e-06
0.0135234
-1.61861e-06
0.0135238
-1.51196e-06
0.0135242
-1.41212e-06
0.0135245
-1.31902e-06
0.0135248
-1.23185e-06
0.0135251
-1.15087e-06
0.0135254
-1.0747e-06
0.0135257
-1.00419e-06
0.0135259
-9.37401e-07
0.0135262
-8.76357e-07
0.0135264
-8.17569e-07
0.0135266
-7.6505e-07
0.0135268
-7.12686e-07
0.0135269
-6.68357e-07
0.0135271
-6.2081e-07
0.0135273
-5.84944e-07
0.0135274
-5.40064e-07
0.0135275
-5.14039e-07
0.0135277
-4.69079e-07
0.0135278
-4.55189e-07
-4.09007e-07
0.0101887
-0.000354279
0.0105305
-0.000790573
0.0108515
-0.000918948
0.0111242
-0.000901671
0.0113506
-0.000842626
0.0115245
-0.000757686
0.0116463
-0.000656627
0.0117242
-0.000553656
0.011768
-0.000459771
0.0117866
-0.000379754
0.0117871
-0.000314093
0.0117751
-0.000261404
0.0117549
-0.000219699
0.0117298
-0.000186898
0.0117021
-0.000161058
0.0116732
-0.000140519
0.0116443
-0.000123993
0.011616
-0.000110476
0.0115886
-9.92199e-05
0.0115624
-8.96814e-05
0.0115376
-8.14707e-05
0.0115141
-7.43078e-05
0.0114919
-6.79905e-05
0.0114711
-6.237e-05
0.0114515
-5.7335e-05
0.0114332
-5.28002e-05
0.0114161
-4.86983e-05
0.0114
-4.49749e-05
0.011385
-4.15854e-05
0.0113711
-3.84919e-05
0.011358
-3.56621e-05
0.0113458
-3.30685e-05
0.0113344
-3.06871e-05
0.0113238
-2.84969e-05
0.0113139
-2.64793e-05
0.0113047
-2.46181e-05
0.0112961
-2.28992e-05
0.0112881
-2.13099e-05
0.0112806
-1.98388e-05
0.0112736
-1.84756e-05
0.0112671
-1.72116e-05
0.0112611
-1.60387e-05
0.0112554
-1.49496e-05
0.0112501
-1.39374e-05
0.0112452
-1.29962e-05
0.0112406
-1.2121e-05
0.0112364
-1.13066e-05
0.0112324
-1.05483e-05
0.0112286
-9.84195e-06
0.0112252
-9.18407e-06
0.0112219
-8.57119e-06
0.0112189
-7.99989e-06
0.0112161
-7.46711e-06
0.0112135
-6.97034e-06
0.011211
-6.50721e-06
0.0112087
-6.07524e-06
0.0112066
-5.67208e-06
0.0112046
-5.29586e-06
0.0112027
-4.94495e-06
0.011201
-4.61756e-06
0.0111994
-4.31188e-06
0.0111978
-4.02644e-06
0.0111964
-3.76009e-06
0.0111951
-3.51157e-06
0.0111939
-3.2795e-06
0.0111927
-3.0627e-06
0.0111916
-2.8603e-06
0.0111906
-2.67145e-06
0.0111897
-2.49512e-06
0.0111888
-2.33034e-06
0.011188
-2.17644e-06
0.0111872
-2.03282e-06
0.0111865
-1.89876e-06
0.0111859
-1.77347e-06
0.0111853
-1.6564e-06
0.0111847
-1.54712e-06
0.0111841
-1.44514e-06
0.0111836
-1.34984e-06
0.0111832
-1.26079e-06
0.0111827
-1.17759e-06
0.0111823
-1.10001e-06
0.0111819
-1.02747e-06
0.0111816
-9.59778e-07
0.0111812
-8.96375e-07
0.0111809
-8.37419e-07
0.0111806
-7.8208e-07
0.0111803
-7.30754e-07
0.0111801
-6.82259e-07
0.0111798
-6.37683e-07
0.0111796
-5.9513e-07
0.0111794
-5.56635e-07
0.0111792
-5.18994e-07
0.011179
-4.86093e-07
0.0111789
-4.52437e-07
0.0111787
-4.25089e-07
0.0111786
-3.94345e-07
0.0111784
-3.73296e-07
0.0111783
-3.4456e-07
0.0111782
-3.33284e-07
-3.04567e-07
0.0103395
-0.000693804
0.0105708
-0.0010218
0.0106063
-0.000954494
0.0105476
-0.000842943
0.0104223
-0.000717371
0.0102444
-0.000579724
0.0100394
-0.000451692
0.00982874
-0.000342978
0.00962513
-0.000256163
0.0094353
-0.00018992
0.00926243
-0.000141219
0.00910753
-0.00010651
0.00897015
-8.23202e-05
0.0088489
-6.56462e-05
0.00874197
-5.41273e-05
0.00864749
-4.604e-05
0.00856369
-4.01943e-05
0.00848901
-3.57928e-05
0.00842211
-3.23188e-05
0.00836188
-2.94493e-05
0.0083074
-2.69886e-05
0.00825791
-2.48203e-05
0.00821279
-2.28755e-05
0.00817154
-2.11124e-05
0.0081337
-1.95047e-05
0.00809894
-1.8034e-05
0.00806693
-1.66867e-05
0.0080374
-1.54514e-05
0.00801014
-1.43179e-05
0.00798492
-1.32771e-05
0.00796158
-1.23206e-05
0.00793995
-1.14407e-05
0.0079199
-1.06304e-05
0.00790128
-9.88337e-06
0.007884
-9.19379e-06
0.00786793
-8.55649e-06
0.007853
-7.96691e-06
0.00783911
-7.42093e-06
0.00782619
-6.91479e-06
0.00781416
-6.44512e-06
0.00780296
-6.00902e-06
0.00779252
-5.60383e-06
0.0077828
-5.22709e-06
0.00777374
-4.87653e-06
0.00776529
-4.55021e-06
0.00775742
-4.24639e-06
0.00775007
-3.96339e-06
0.00774323
-3.69962e-06
0.00773684
-3.45368e-06
0.00773088
-3.22441e-06
0.00772532
-3.01064e-06
0.00772013
-2.81119e-06
0.00771529
-2.62505e-06
0.00771077
-2.45136e-06
0.00770655
-2.28933e-06
0.00770261
-2.13809e-06
0.00769894
-1.99684e-06
0.00769551
-1.86496e-06
0.0076923
-1.74189e-06
0.00768931
-1.62701e-06
0.00768652
-1.51968e-06
0.00768391
-1.41941e-06
0.00768148
-1.32582e-06
0.00767921
-1.23846e-06
0.00767708
-1.15683e-06
0.0076751
-1.08055e-06
0.00767325
-1.00932e-06
0.00767152
-9.42842e-07
0.00766991
-8.80743e-07
0.0076684
-8.22689e-07
0.00766699
-7.68458e-07
0.00766568
-7.17841e-07
0.00766445
-6.7058e-07
0.0076633
-6.26395e-07
0.00766223
-5.85105e-07
0.00766123
-5.46555e-07
0.00766029
-5.10578e-07
0.00765942
-4.76945e-07
0.00765861
-4.45514e-07
0.00765785
-4.16144e-07
0.00765713
-3.88762e-07
0.00765647
-3.63147e-07
0.00765585
-3.39242e-07
0.00765527
-3.1685e-07
0.00765473
-2.96031e-07
0.00765422
-2.76484e-07
0.00765375
-2.58347e-07
0.00765331
-2.41217e-07
0.0076529
-2.25456e-07
0.00765251
-2.10444e-07
0.00765215
-1.96799e-07
0.00765182
-1.83575e-07
0.0076515
-1.71827e-07
0.00765121
-1.60181e-07
0.00765094
-1.50167e-07
0.00765068
-1.4008e-07
0.00765044
-1.3169e-07
0.00765022
-1.24147e-07
0.00765
-1.18268e-07
-1.20778e-07
0.0093062
0.00828439
0.0073299
0.00648696
0.00576958
0.00518986
0.00473817
0.00439519
0.00413903
0.00394911
0.00380789
0.00370138
0.00361906
0.00355341
0.00349928
0.00345324
0.00341305
0.00337726
0.00334494
0.00331549
0.0032885
0.00326368
0.0032408
0.00321969
0.00320019
0.00318215
0.00316547
0.00315002
0.0031357
0.00312242
0.0031101
0.00309866
0.00308803
0.00307815
0.00306895
0.0030604
0.00305243
0.00304501
0.00303809
0.00303165
0.00302564
0.00302003
0.00301481
0.00300993
0.00300538
0.00300113
0.00299717
0.00299347
0.00299002
0.00298679
0.00298378
0.00298097
0.00297835
0.0029759
0.00297361
0.00297147
0.00296947
0.00296761
0.00296586
0.00296424
0.00296272
0.0029613
0.00295997
0.00295873
0.00295758
0.0029565
0.00295549
0.00295454
0.00295366
0.00295284
0.00295207
0.00295135
0.00295068
0.00295006
0.00294947
0.00294893
0.00294842
0.00294794
0.00294749
0.00294708
0.00294669
0.00294632
0.00294599
0.00294567
0.00294537
0.0029451
0.00294484
0.0029446
0.00294437
0.00294416
0.00294396
0.00294378
0.00294361
0.00294345
0.0029433
0.00294316
0.00294303
0.0029429
0.00294278
)
;

boundaryField
{
    inlet
    {
        type            calculated;
        value           nonuniform List<scalar> 10(-0.01 -0.01 -0.01 -0.01 -0.01 -0.01 -0.01 -0.01 -0.01 -0.01);
    }
    outlet
    {
        type            calculated;
        value           nonuniform List<scalar> 10(0.00294266 0.00764982 0.0111781 0.0135279 0.0147016 0.0147016 0.0135279 0.0111781 0.00764982 0.00294266);
    }
    top
    {
        type            calculated;
        value           uniform 0;
    }
    bottom
    {
        type            calculated;
        value           uniform 0;
    }
    frontAndBack
    {
        type            empty;
        value           nonuniform List<scalar> 0();
    }
}


// ************************************************************************* //
