/*--------------------------------*- C++ -*----------------------------------*\
| =========                 |                                                 |
| \\      /  F ield         | OpenFOAM: The Open Source CFD Toolbox           |
|  \\    /   O peration     | Version:  v2012                                 |
|   \\  /    A nd           | Website:  www.openfoam.com                      |
|    \\/     M anipulation  |                                                 |
\*---------------------------------------------------------------------------*/
FoamFile
{
    version     2.0;
    format      ascii;
    class       volVectorField;
    location    "0.5";
    object      U;
}
// * * * * * * * * * * * * * * * * * * * * * * * * * * * * * * * * * * * * * //

dimensions      [0 1 -1 0 0 0 0];


internalField   nonuniform List<vector> 
1000
(
(9.18908 0.358219 0)
(8.62714 0.621956 0)
(7.8706 0.625101 0)
(6.9536 0.545504 0)
(6.10897 0.445317 0)
(5.44116 0.34016 0)
(4.9343 0.241875 0)
(4.54794 0.161442 0)
(4.25446 0.102658 0)
(4.03473 0.0630415 0)
(3.87158 0.0379763 0)
(3.74962 0.0231034 0)
(3.65662 0.0149301 0)
(3.58363 0.0108512 0)
(3.52443 0.00906072 0)
(3.47482 0.00841052 0)
(3.43203 0.00823724 0)
(3.39427 0.0081931 0)
(3.36038 0.00811852 0)
(3.32961 0.00795801 0)
(3.30148 0.00770811 0)
(3.27564 0.00738709 0)
(3.25184 0.00701889 0)
(3.22989 0.00662566 0)
(3.20962 0.006225 0)
(3.19088 0.00582958 0)
(3.17354 0.00544772 0)
(3.1575 0.00508434 0)
(3.14264 0.00474191 0)
(3.12886 0.00442124 0)
(3.11608 0.00412209 0)
(3.10421 0.00384361 0)
(3.09319 0.00358464 0)
(3.08294 0.0033439 0)
(3.07342 0.00312007 0)
(3.06455 0.00291188 0)
(3.0563 0.00271814 0)
(3.04861 0.00253777 0)
(3.04145 0.00236975 0)
(3.03478 0.00221316 0)
(3.02856 0.00206714 0)
(3.02276 0.00193095 0)
(3.01735 0.00180388 0)
(3.0123 0.00168529 0)
(3.00759 0.00157457 0)
(3.0032 0.00147118 0)
(2.9991 0.00137464 0)
(2.99527 0.00128447 0)
(2.9917 0.00120023 0)
(2.98836 0.00112152 0)
(2.98525 0.00104799 0)
(2.98234 0.000979301 0)
(2.97962 0.000915103 0)
(2.97709 0.000855101 0)
(2.97472 0.00079904 0)
(2.97251 0.000746663 0)
(2.97044 0.000697707 0)
(2.96851 0.000651942 0)
(2.96671 0.000609176 0)
(2.96503 0.000569224 0)
(2.96346 0.000531887 0)
(2.96199 0.00049698 0)
(2.96062 0.000464355 0)
(2.95934 0.00043388 0)
(2.95814 0.000405406 0)
(2.95702 0.000378786 0)
(2.95598 0.000353901 0)
(2.955 0.000330656 0)
(2.95409 0.000308944 0)
(2.95324 0.000288648 0)
(2.95245 0.000269673 0)
(2.9517 0.000251947 0)
(2.95101 0.000235394 0)
(2.95036 0.000219923 0)
(2.94976 0.00020546 0)
(2.94919 0.000191943 0)
(2.94866 0.000179325 0)
(2.94817 0.000167533 0)
(2.94771 0.000156512 0)
(2.94728 0.000146205 0)
(2.94688 0.000136592 0)
(2.9465 0.000127601 0)
(2.94615 0.000119213 0)
(2.94582 0.000111348 0)
(2.94552 0.000104034 0)
(2.94523 9.71653e-05 0)
(2.94496 9.07976e-05 0)
(2.94471 8.478e-05 0)
(2.94448 7.92458e-05 0)
(2.94426 7.39743e-05 0)
(2.94406 6.91844e-05 0)
(2.94387 6.45562e-05 0)
(2.94369 6.04253e-05 0)
(2.94353 5.63971e-05 0)
(2.94337 5.28509e-05 0)
(2.94323 4.95428e-05 0)
(2.94309 4.65514e-05 0)
(2.94296 4.48076e-05 0)
(2.94285 4.32191e-05 0)
(2.94267 4.74529e-05 0)
(10.0166 0.538194 0)
(10.3598 1.01284 0)
(10.5972 1.10737 0)
(10.6289 1.05922 0)
(10.5156 0.962287 0)
(10.3405 0.839341 0)
(10.1428 0.703271 0)
(9.93607 0.569813 0)
(9.72926 0.451075 0)
(9.53107 0.352367 0)
(9.34795 0.274017 0)
(9.1829 0.213872 0)
(9.03624 0.168845 0)
(8.90681 0.135697 0)
(8.79282 0.111477 0)
(8.69232 0.0937366 0)
(8.60344 0.0805693 0)
(8.52447 0.0705713 0)
(8.45392 0.0627524 0)
(8.39058 0.0564383 0)
(8.33341 0.0511809 0)
(8.28159 0.0466867 0)
(8.23442 0.0427642 0)
(8.19135 0.0392874 0)
(8.1519 0.036172 0)
(8.11568 0.0333597 0)
(8.08235 0.0308081 0)
(8.05164 0.0284847 0)
(8.0233 0.0263637 0)
(7.9971 0.0244234 0)
(7.97286 0.0226452 0)
(7.95041 0.0210129 0)
(7.9296 0.0195122 0)
(7.91029 0.0181306 0)
(7.89236 0.0168568 0)
(7.87571 0.015681 0)
(7.86023 0.0145941 0)
(7.84584 0.0135883 0)
(7.83245 0.0126568 0)
(7.81999 0.0117932 0)
(7.80839 0.0109917 0)
(7.79758 0.0102474 0)
(7.78751 0.00955575 0)
(7.77813 0.00891271 0)
(7.76939 0.00831439 0)
(7.76124 0.00775742 0)
(7.75364 0.00723884 0)
(7.74655 0.00675586 0)
(7.73994 0.00630575 0)
(7.73377 0.0058861 0)
(7.72802 0.00549488 0)
(7.72265 0.00513015 0)
(7.71764 0.00478995 0)
(7.71296 0.00447245 0)
(7.7086 0.0041762 0)
(7.70452 0.00389986 0)
(7.70072 0.00364199 0)
(7.69717 0.00340119 0)
(7.69386 0.00317634 0)
(7.69076 0.00296653 0)
(7.68788 0.00277071 0)
(7.68518 0.00258781 0)
(7.68266 0.00241695 0)
(7.68031 0.00225744 0)
(7.67811 0.00210858 0)
(7.67606 0.00196954 0)
(7.67415 0.0018396 0)
(7.67236 0.00171824 0)
(7.67069 0.00160499 0)
(7.66913 0.00149923 0)
(7.66768 0.00140037 0)
(7.66631 0.001308 0)
(7.66504 0.0012218 0)
(7.66386 0.00114132 0)
(7.66275 0.0010661 0)
(7.66172 0.000995785 0)
(7.66075 0.000930152 0)
(7.65985 0.000868881 0)
(7.659 0.00081165 0)
(7.65821 0.000758107 0)
(7.65748 0.000708145 0)
(7.65679 0.000661469 0)
(7.65615 0.000617944 0)
(7.65555 0.000577145 0)
(7.65499 0.000539157 0)
(7.65447 0.000503536 0)
(7.65398 0.000470501 0)
(7.65352 0.000439323 0)
(7.6531 0.000410577 0)
(7.6527 0.000383243 0)
(7.65233 0.00035839 0)
(7.65198 0.000334331 0)
(7.65166 0.00031295 0)
(7.65135 0.00029165 0)
(7.65107 0.000273573 0)
(7.6508 0.000254668 0)
(7.65057 0.000240011 0)
(7.65031 0.000223678 0)
(7.65015 0.000214061 0)
(7.64983 0.000204175 0)
(10.0142 0.268249 0)
(10.2913 0.627914 0)
(10.6543 0.777366 0)
(10.9896 0.805972 0)
(11.2531 0.782852 0)
(11.4505 0.731539 0)
(11.5949 0.661113 0)
(11.6943 0.581621 0)
(11.7554 0.502968 0)
(11.7857 0.431507 0)
(11.7936 0.369728 0)
(11.7859 0.317716 0)
(11.7683 0.274518 0)
(11.7445 0.238868 0)
(11.7173 0.209476 0)
(11.6884 0.185158 0)
(11.6592 0.164881 0)
(11.6303 0.147795 0)
(11.6023 0.13323 0)
(11.5754 0.120671 0)
(11.5498 0.10973 0)
(11.5256 0.100111 0)
(11.5027 0.0915875 0)
(11.4812 0.0839861 0)
(11.4611 0.0771695 0)
(11.4421 0.0710289 0)
(11.4244 0.0654759 0)
(11.4078 0.060438 0)
(11.3923 0.0558543 0)
(11.3779 0.0516734 0)
(11.3644 0.0478515 0)
(11.3517 0.0443508 0)
(11.34 0.0411382 0)
(11.329 0.0381851 0)
(11.3187 0.0354665 0)
(11.3092 0.0329603 0)
(11.3003 0.0306469 0)
(11.292 0.0285089 0)
(11.2842 0.026531 0)
(11.277 0.0246997 0)
(11.2703 0.0230024 0)
(11.264 0.0214281 0)
(11.2582 0.0199668 0)
(11.2527 0.0186097 0)
(11.2476 0.0173488 0)
(11.2429 0.0161763 0)
(11.2384 0.0150855 0)
(11.2343 0.0140706 0)
(11.2305 0.013126 0)
(11.2269 0.0122462 0)
(11.2235 0.0114266 0)
(11.2204 0.0106629 0)
(11.2175 0.0099514 0)
(11.2147 0.00928815 0)
(11.2122 0.00866956 0)
(11.2098 0.00809268 0)
(11.2076 0.00755483 0)
(11.2055 0.0070532 0)
(11.2036 0.00658504 0)
(11.2018 0.00614813 0)
(11.2001 0.00574057 0)
(11.1986 0.00536035 0)
(11.1971 0.0050054 0)
(11.1957 0.00467395 0)
(11.1945 0.00436462 0)
(11.1933 0.00407601 0)
(11.1922 0.00380656 0)
(11.1911 0.00355483 0)
(11.1902 0.00331981 0)
(11.1893 0.00310052 0)
(11.1884 0.00289579 0)
(11.1876 0.0027045 0)
(11.1869 0.00252583 0)
(11.1862 0.00235906 0)
(11.1856 0.00220342 0)
(11.185 0.00205798 0)
(11.1844 0.0019221 0)
(11.1839 0.00179521 0)
(11.1834 0.00167684 0)
(11.1829 0.0015662 0)
(11.1825 0.00146288 0)
(11.1821 0.00136626 0)
(11.1817 0.00127626 0)
(11.1814 0.00119199 0)
(11.1811 0.00111352 0)
(11.1808 0.0010398 0)
(11.1805 0.000971552 0)
(11.1802 0.000907082 0)
(11.18 0.00084786 0)
(11.1797 0.000791144 0)
(11.1795 0.000740089 0)
(11.1793 0.000689871 0)
(11.1791 0.000646489 0)
(11.179 0.000601204 0)
(11.1788 0.000565556 0)
(11.1786 0.00052345 0)
(11.1785 0.000496633 0)
(11.1783 0.000455512 0)
(11.1783 0.000440184 0)
(11.1781 0.000398877 0)
(10.0073 0.118147 0)
(10.1785 0.308609 0)
(10.4622 0.414344 0)
(10.799 0.451936 0)
(11.1327 0.455024 0)
(11.4378 0.440803 0)
(11.7089 0.4144 0)
(11.9457 0.379737 0)
(12.1486 0.341957 0)
(12.3197 0.305369 0)
(12.4627 0.27222 0)
(12.5823 0.243139 0)
(12.6831 0.217979 0)
(12.7689 0.196337 0)
(12.8426 0.177738 0)
(12.9065 0.161697 0)
(12.9624 0.147756 0)
(13.0118 0.135523 0)
(13.0556 0.124679 0)
(13.0948 0.114975 0)
(13.13 0.106222 0)
(13.1618 0.0982751 0)
(13.1905 0.0910241 0)
(13.2166 0.0843818 0)
(13.2403 0.0782791 0)
(13.262 0.0726598 0)
(13.2818 0.0674771 0)
(13.2999 0.0626912 0)
(13.3165 0.0582673 0)
(13.3318 0.0541748 0)
(13.3459 0.0503861 0)
(13.3589 0.0468767 0)
(13.3708 0.0436242 0)
(13.3819 0.0406082 0)
(13.3921 0.03781 0)
(13.4016 0.0352129 0)
(13.4103 0.0328014 0)
(13.4185 0.0305613 0)
(13.426 0.0284793 0)
(13.4331 0.0265439 0)
(13.4396 0.0247442 0)
(13.4456 0.02307 0)
(13.4513 0.0215119 0)
(13.4565 0.0200615 0)
(13.4614 0.0187114 0)
(13.4659 0.0174542 0)
(13.4702 0.016283 0)
(13.4741 0.0151916 0)
(13.4778 0.0141747 0)
(13.4812 0.0132272 0)
(13.4844 0.0123439 0)
(13.4874 0.0115201 0)
(13.4902 0.010752 0)
(13.4928 0.010036 0)
(13.4952 0.00936822 0)
(13.4975 0.00874503 0)
(13.4996 0.00816362 0)
(13.5016 0.00762145 0)
(13.5034 0.00711569 0)
(13.5051 0.00664352 0)
(13.5067 0.00620274 0)
(13.5082 0.00579156 0)
(13.5096 0.00540799 0)
(13.5109 0.00504984 0)
(13.5122 0.00471532 0)
(13.5133 0.00440312 0)
(13.5144 0.00411191 0)
(13.5154 0.00384 0)
(13.5163 0.00358595 0)
(13.5172 0.00334872 0)
(13.518 0.00312744 0)
(13.5187 0.00292086 0)
(13.5194 0.00272783 0)
(13.5201 0.00254748 0)
(13.5207 0.00237922 0)
(13.5213 0.00222219 0)
(13.5218 0.00207548 0)
(13.5223 0.00193831 0)
(13.5228 0.00181034 0)
(13.5232 0.00169087 0)
(13.5236 0.00157938 0)
(13.524 0.00147497 0)
(13.5244 0.00137771 0)
(13.5247 0.00128665 0)
(13.525 0.00120205 0)
(13.5253 0.00112236 0)
(13.5256 0.00104873 0)
(13.5258 0.000978912 0)
(13.5261 0.000915266 0)
(13.5263 0.000853708 0)
(13.5265 0.000799044 0)
(13.5267 0.000744136 0)
(13.5268 0.000698206 0)
(13.527 0.000648146 0)
(13.5272 0.000611141 0)
(13.5273 0.000563672 0)
(13.5274 0.000536842 0)
(13.5276 0.000489239 0)
(13.5277 0.000474505 0)
(13.5279 0.000423485 0)
(10.0059 0.0346292 0)
(10.1369 0.0936602 0)
(10.3703 0.130468 0)
(10.6742 0.145633 0)
(11.0003 0.148545 0)
(11.3164 0.14565 0)
(11.6107 0.138883 0)
(11.8807 0.129192 0)
(12.1252 0.118065 0)
(12.3439 0.106964 0)
(12.5381 0.0967274 0)
(12.7103 0.0876282 0)
(12.864 0.0796597 0)
(13.0021 0.0727221 0)
(13.1271 0.0666881 0)
(13.2409 0.0614192 0)
(13.345 0.0567807 0)
(13.4407 0.0526532 0)
(13.5289 0.0489393 0)
(13.6105 0.0455639 0)
(13.686 0.0424707 0)
(13.756 0.0396178 0)
(13.821 0.036974 0)
(13.8814 0.0345158 0)
(13.9375 0.0322252 0)
(13.9897 0.0300877 0)
(14.0383 0.0280916 0)
(14.0835 0.0262268 0)
(14.1255 0.0244845 0)
(14.1646 0.0228568 0)
(14.2011 0.0213361 0)
(14.235 0.0199157 0)
(14.2667 0.0185893 0)
(14.2961 0.0173509 0)
(14.3236 0.0161946 0)
(14.3492 0.0151152 0)
(14.373 0.0141077 0)
(14.3952 0.0131675 0)
(14.416 0.01229 0)
(14.4353 0.0114709 0)
(14.4533 0.0107065 0)
(14.4701 0.00999352 0)
(14.4858 0.00932815 0)
(14.5005 0.00870699 0)
(14.5141 0.00812733 0)
(14.5268 0.00758669 0)
(14.5387 0.00708228 0)
(14.5498 0.0066113 0)
(14.5602 0.00617163 0)
(14.5698 0.00576156 0)
(14.5788 0.00537909 0)
(14.5873 0.00502195 0)
(14.5951 0.00468835 0)
(14.6024 0.00437715 0)
(14.6093 0.004087 0)
(14.6157 0.00381611 0)
(14.6217 0.00356293 0)
(14.6272 0.00332661 0)
(14.6324 0.00310635 0)
(14.6373 0.00290079 0)
(14.6418 0.00270861 0)
(14.646 0.00252907 0)
(14.65 0.00236172 0)
(14.6537 0.00220565 0)
(14.6571 0.00205974 0)
(14.6604 0.0019233 0)
(14.6634 0.00179606 0)
(14.6662 0.00167749 0)
(14.6688 0.00156669 0)
(14.6712 0.00146299 0)
(14.6735 0.00136618 0)
(14.6757 0.00127602 0)
(14.6777 0.00119184 0)
(14.6795 0.00111303 0)
(14.6813 0.00103938 0)
(14.6829 0.000970765 0)
(14.6844 0.000906797 0)
(14.6858 0.000846904 0)
(14.6871 0.000790888 0)
(14.6884 0.000738622 0)
(14.6895 0.000689996 0)
(14.6906 0.000644432 0)
(14.6916 0.000601875 0)
(14.6926 0.000561993 0)
(14.6934 0.000525082 0)
(14.6943 0.000490298 0)
(14.695 0.00045815 0)
(14.6957 0.000427533 0)
(14.6964 0.000399803 0)
(14.697 0.000372858 0)
(14.6976 0.000349132 0)
(14.6982 0.000324957 0)
(14.6987 0.000305115 0)
(14.6992 0.000283011 0)
(14.6996 0.0002672 0)
(14.7 0.000246076 0)
(14.7003 0.000234751 0)
(14.7008 0.000213427 0)
(14.701 0.000207259 0)
(14.7016 0.000184127 0)
(10.0059 -0.0346292 0)
(10.1369 -0.0936602 0)
(10.3703 -0.130468 0)
(10.6742 -0.145633 0)
(11.0003 -0.148545 0)
(11.3164 -0.14565 0)
(11.6107 -0.138883 0)
(11.8807 -0.129192 0)
(12.1252 -0.118065 0)
(12.3439 -0.106964 0)
(12.5381 -0.0967274 0)
(12.7103 -0.0876282 0)
(12.864 -0.0796597 0)
(13.0021 -0.0727221 0)
(13.1271 -0.0666881 0)
(13.2409 -0.0614193 0)
(13.345 -0.0567807 0)
(13.4407 -0.0526532 0)
(13.5289 -0.0489394 0)
(13.6105 -0.045564 0)
(13.686 -0.0424707 0)
(13.756 -0.0396177 0)
(13.821 -0.036974 0)
(13.8814 -0.0345158 0)
(13.9375 -0.0322252 0)
(13.9897 -0.0300877 0)
(14.0383 -0.0280915 0)
(14.0835 -0.0262268 0)
(14.1255 -0.0244845 0)
(14.1646 -0.0228567 0)
(14.2011 -0.021336 0)
(14.235 -0.0199158 0)
(14.2667 -0.0185894 0)
(14.2961 -0.0173509 0)
(14.3236 -0.0161945 0)
(14.3492 -0.0151152 0)
(14.373 -0.0141078 0)
(14.3952 -0.0131675 0)
(14.416 -0.0122898 0)
(14.4353 -0.0114708 0)
(14.4533 -0.0107068 0)
(14.4701 -0.00999363 0)
(14.4858 -0.00932795 0)
(14.5005 -0.00870686 0)
(14.5141 -0.00812756 0)
(14.5268 -0.00758695 0)
(14.5387 -0.00708217 0)
(14.5498 -0.0066111 0)
(14.5602 -0.00617178 0)
(14.5698 -0.00576191 0)
(14.5788 -0.00537911 0)
(14.5873 -0.00502169 0)
(14.5951 -0.00468836 0)
(14.6024 -0.00437749 0)
(14.6093 -0.00408713 0)
(14.6157 -0.00381584 0)
(14.6217 -0.00356277 0)
(14.6272 -0.00332685 0)
(14.6324 -0.00310654 0)
(14.6373 -0.00290057 0)
(14.6418 -0.0027083 0)
(14.646 -0.00252912 0)
(14.65 -0.00236189 0)
(14.6537 -0.00220551 0)
(14.6571 -0.00205938 0)
(14.6604 -0.00192318 0)
(14.6634 -0.00179619 0)
(14.6662 -0.00167742 0)
(14.6688 -0.00156635 0)
(14.6712 -0.00146277 0)
(14.6735 -0.00136627 0)
(14.6757 -0.00127608 0)
(14.6777 -0.00119166 0)
(14.6795 -0.00111285 0)
(14.6813 -0.00103946 0)
(14.6829 -0.00097093 0)
(14.6844 -0.00090678 0)
(14.6858 -0.00084679 0)
(14.6871 -0.000790949 0)
(14.6884 -0.000738836 0)
(14.6895 -0.00069012 0)
(14.6906 -0.000644441 0)
(14.6916 -0.000601984 0)
(14.6926 -0.000562266 0)
(14.6934 -0.000525347 0)
(14.6943 -0.000490464 0)
(14.695 -0.000458328 0)
(14.6957 -0.000427804 0)
(14.6964 -0.000400085 0)
(14.697 -0.000373044 0)
(14.6976 -0.000349244 0)
(14.6982 -0.000325054 0)
(14.6987 -0.000305175 0)
(14.6992 -0.000282978 0)
(14.6996 -0.000267062 0)
(14.7 -0.000245906 0)
(14.7003 -0.000234534 0)
(14.7008 -0.000213233 0)
(14.701 -0.000207018 0)
(14.7016 -0.000183927 0)
(10.0073 -0.118147 0)
(10.1785 -0.308609 0)
(10.4622 -0.414344 0)
(10.799 -0.451936 0)
(11.1327 -0.455024 0)
(11.4378 -0.440803 0)
(11.7089 -0.4144 0)
(11.9457 -0.379737 0)
(12.1486 -0.341957 0)
(12.3197 -0.305369 0)
(12.4627 -0.27222 0)
(12.5823 -0.243139 0)
(12.6831 -0.217979 0)
(12.7689 -0.196337 0)
(12.8426 -0.177738 0)
(12.9065 -0.161697 0)
(12.9624 -0.147756 0)
(13.0118 -0.135523 0)
(13.0556 -0.124679 0)
(13.0948 -0.114975 0)
(13.13 -0.106222 0)
(13.1618 -0.0982751 0)
(13.1905 -0.0910241 0)
(13.2166 -0.0843818 0)
(13.2403 -0.0782791 0)
(13.262 -0.0726598 0)
(13.2818 -0.0674771 0)
(13.2999 -0.0626911 0)
(13.3165 -0.0582673 0)
(13.3318 -0.0541748 0)
(13.3459 -0.0503861 0)
(13.3589 -0.0468767 0)
(13.3708 -0.0436242 0)
(13.3819 -0.0406082 0)
(13.3921 -0.03781 0)
(13.4016 -0.0352129 0)
(13.4103 -0.0328014 0)
(13.4185 -0.0305613 0)
(13.426 -0.0284794 0)
(13.4331 -0.0265439 0)
(13.4396 -0.0247441 0)
(13.4456 -0.02307 0)
(13.4513 -0.0215119 0)
(13.4565 -0.0200616 0)
(13.4614 -0.0187114 0)
(13.4659 -0.0174542 0)
(13.4702 -0.016283 0)
(13.4741 -0.0151917 0)
(13.4778 -0.0141748 0)
(13.4812 -0.0132272 0)
(13.4844 -0.012344 0)
(13.4874 -0.0115202 0)
(13.4902 -0.0107521 0)
(13.4928 -0.010036 0)
(13.4952 -0.00936824 0)
(13.4975 -0.0087451 0)
(13.4996 -0.00816365 0)
(13.5016 -0.00762141 0)
(13.5034 -0.00711564 0)
(13.5051 -0.00664351 0)
(13.5067 -0.00620272 0)
(13.5082 -0.00579147 0)
(13.5096 -0.00540787 0)
(13.5109 -0.00504975 0)
(13.5122 -0.00471524 0)
(13.5133 -0.004403 0)
(13.5144 -0.00411175 0)
(13.5154 -0.00383988 0)
(13.5163 -0.00358587 0)
(13.5172 -0.00334863 0)
(13.518 -0.00312732 0)
(13.5187 -0.00292078 0)
(13.5194 -0.0027278 0)
(13.5201 -0.00254747 0)
(13.5207 -0.00237919 0)
(13.5213 -0.00222217 0)
(13.5218 -0.00207551 0)
(13.5223 -0.00193837 0)
(13.5228 -0.0018104 0)
(13.5232 -0.00169092 0)
(13.5236 -0.00157947 0)
(13.524 -0.00147511 0)
(13.5244 -0.00137784 0)
(13.5247 -0.00128678 0)
(13.525 -0.00120221 0)
(13.5253 -0.00112256 0)
(13.5256 -0.00104894 0)
(13.5258 -0.000979105 0)
(13.5261 -0.000915443 0)
(13.5263 -0.000853875 0)
(13.5265 -0.00079918 0)
(13.5267 -0.000744217 0)
(13.5268 -0.000698224 0)
(13.527 -0.000648113 0)
(13.5272 -0.000611054 0)
(13.5273 -0.000563546 0)
(13.5274 -0.000536661 0)
(13.5276 -0.000489067 0)
(13.5277 -0.0004743 0)
(13.5279 -0.000423314 0)
(10.0142 -0.268249 0)
(10.2913 -0.627914 0)
(10.6543 -0.777366 0)
(10.9896 -0.805972 0)
(11.2531 -0.782852 0)
(11.4505 -0.731539 0)
(11.5949 -0.661113 0)
(11.6943 -0.581621 0)
(11.7554 -0.502968 0)
(11.7857 -0.431507 0)
(11.7936 -0.369728 0)
(11.7859 -0.317716 0)
(11.7683 -0.274518 0)
(11.7445 -0.238868 0)
(11.7173 -0.209476 0)
(11.6884 -0.185158 0)
(11.6592 -0.164881 0)
(11.6303 -0.147795 0)
(11.6023 -0.13323 0)
(11.5754 -0.120671 0)
(11.5498 -0.10973 0)
(11.5256 -0.100111 0)
(11.5027 -0.0915875 0)
(11.4812 -0.083986 0)
(11.4611 -0.0771695 0)
(11.4421 -0.0710289 0)
(11.4244 -0.0654759 0)
(11.4078 -0.0604379 0)
(11.3923 -0.0558543 0)
(11.3779 -0.0516735 0)
(11.3644 -0.0478516 0)
(11.3517 -0.0443507 0)
(11.34 -0.0411381 0)
(11.329 -0.0381852 0)
(11.3187 -0.0354666 0)
(11.3092 -0.0329602 0)
(11.3003 -0.0306468 0)
(11.292 -0.028509 0)
(11.2842 -0.0265312 0)
(11.277 -0.0246997 0)
(11.2703 -0.0230023 0)
(11.264 -0.0214281 0)
(11.2582 -0.019967 0)
(11.2527 -0.0186098 0)
(11.2476 -0.0173486 0)
(11.2429 -0.0161762 0)
(11.2384 -0.0150857 0)
(11.2343 -0.0140708 0)
(11.2305 -0.0131259 0)
(11.2269 -0.0122461 0)
(11.2235 -0.0114267 0)
(11.2204 -0.0106632 0)
(11.2175 -0.00995139 0)
(11.2147 -0.00928795 0)
(11.2122 -0.00866958 0)
(11.2098 -0.00809292 0)
(11.2076 -0.00755489 0)
(11.2055 -0.00705298 0)
(11.2036 -0.00658492 0)
(11.2018 -0.00614827 0)
(11.2001 -0.00574065 0)
(11.1986 -0.00536016 0)
(11.1971 -0.00500517 0)
(11.1957 -0.00467397 0)
(11.1945 -0.00436471 0)
(11.1933 -0.00407587 0)
(11.1922 -0.0038063 0)
(11.1911 -0.00355477 0)
(11.1902 -0.00331991 0)
(11.1893 -0.00310047 0)
(11.1884 -0.00289559 0)
(11.1876 -0.0027044 0)
(11.1869 -0.00252591 0)
(11.1862 -0.00235912 0)
(11.1856 -0.00220333 0)
(11.185 -0.0020579 0)
(11.1844 -0.00192218 0)
(11.1839 -0.00179534 0)
(11.1834 -0.00167685 0)
(11.1829 -0.00156617 0)
(11.1825 -0.00146296 0)
(11.1821 -0.00136642 0)
(11.1817 -0.00127636 0)
(11.1814 -0.00119203 0)
(11.1811 -0.00111362 0)
(11.1808 -0.00103998 0)
(11.1805 -0.00097172 0)
(11.1802 -0.00090719 0)
(11.18 -0.000847964 0)
(11.1797 -0.00079128 0)
(11.1795 -0.000740208 0)
(11.1793 -0.000689926 0)
(11.1791 -0.000646495 0)
(11.179 -0.000601194 0)
(11.1788 -0.000565519 0)
(11.1786 -0.000523376 0)
(11.1785 -0.000496513 0)
(11.1783 -0.000455382 0)
(11.1783 -0.000440028 0)
(11.1781 -0.000398737 0)
(10.0166 -0.538194 0)
(10.3598 -1.01284 0)
(10.5972 -1.10737 0)
(10.6289 -1.05922 0)
(10.5156 -0.962287 0)
(10.3405 -0.839341 0)
(10.1428 -0.703271 0)
(9.93607 -0.569813 0)
(9.72926 -0.451075 0)
(9.53107 -0.352368 0)
(9.34795 -0.274017 0)
(9.1829 -0.213872 0)
(9.03624 -0.168845 0)
(8.90681 -0.135697 0)
(8.79282 -0.111477 0)
(8.69232 -0.0937366 0)
(8.60344 -0.0805693 0)
(8.52447 -0.0705713 0)
(8.45392 -0.0627524 0)
(8.39058 -0.0564383 0)
(8.33341 -0.0511809 0)
(8.28159 -0.0466867 0)
(8.23442 -0.0427642 0)
(8.19135 -0.0392874 0)
(8.1519 -0.036172 0)
(8.11568 -0.0333597 0)
(8.08235 -0.030808 0)
(8.05164 -0.0284847 0)
(8.0233 -0.0263637 0)
(7.9971 -0.0244234 0)
(7.97286 -0.0226452 0)
(7.95041 -0.0210129 0)
(7.9296 -0.0195122 0)
(7.91029 -0.0181307 0)
(7.89236 -0.0168569 0)
(7.87571 -0.0156809 0)
(7.86023 -0.014594 0)
(7.84584 -0.0135884 0)
(7.83245 -0.0126569 0)
(7.81999 -0.0117931 0)
(7.80839 -0.0109916 0)
(7.79758 -0.0102474 0)
(7.78751 -0.00955585 0)
(7.77813 -0.0089127 0)
(7.76939 -0.0083143 0)
(7.76124 -0.00775744 0)
(7.75364 -0.00723897 0)
(7.74655 -0.0067559 0)
(7.73994 -0.00630566 0)
(7.73377 -0.00588607 0)
(7.72802 -0.00549499 0)
(7.72265 -0.00513024 0)
(7.71764 -0.00478988 0)
(7.71296 -0.00447237 0)
(7.7086 -0.00417627 0)
(7.70452 -0.00389996 0)
(7.70072 -0.00364194 0)
(7.69717 -0.00340107 0)
(7.69386 -0.00317634 0)
(7.69076 -0.00296661 0)
(7.68788 -0.0027707 0)
(7.68518 -0.00258769 0)
(7.68266 -0.00241688 0)
(7.68031 -0.00225749 0)
(7.67811 -0.00210859 0)
(7.67606 -0.00196943 0)
(7.67415 -0.0018395 0)
(7.67236 -0.00171826 0)
(7.67069 -0.00160503 0)
(7.66913 -0.00149917 0)
(7.66768 -0.00140028 0)
(7.66631 -0.001308 0)
(7.66504 -0.00122185 0)
(7.66386 -0.00114131 0)
(7.66275 -0.00106604 0)
(7.66172 -0.000995774 0)
(7.66075 -0.000930209 0)
(7.65985 -0.000868918 0)
(7.659 -0.000811632 0)
(7.65822 -0.000758104 0)
(7.65748 -0.000708203 0)
(7.65679 -0.000661536 0)
(7.65615 -0.000617971 0)
(7.65555 -0.00057717 0)
(7.65499 -0.000539225 0)
(7.65447 -0.000503626 0)
(7.65398 -0.000470572 0)
(7.65352 -0.000439379 0)
(7.6531 -0.000410646 0)
(7.6527 -0.00038332 0)
(7.65233 -0.000358447 0)
(7.65198 -0.00033436 0)
(7.65166 -0.000312963 0)
(7.65135 -0.000291654 0)
(7.65107 -0.000273556 0)
(7.6508 -0.000254629 0)
(7.65057 -0.000239946 0)
(7.65031 -0.000223598 0)
(7.65015 -0.000213959 0)
(7.64983 -0.00020408 0)
(9.18908 -0.358219 0)
(8.62714 -0.621956 0)
(7.8706 -0.625101 0)
(6.9536 -0.545504 0)
(6.10897 -0.445317 0)
(5.44116 -0.34016 0)
(4.9343 -0.241875 0)
(4.54794 -0.161442 0)
(4.25446 -0.102658 0)
(4.03473 -0.0630415 0)
(3.87158 -0.0379763 0)
(3.74962 -0.0231034 0)
(3.65662 -0.0149301 0)
(3.58363 -0.0108512 0)
(3.52443 -0.00906072 0)
(3.47482 -0.00841052 0)
(3.43203 -0.00823724 0)
(3.39427 -0.0081931 0)
(3.36038 -0.00811852 0)
(3.32961 -0.00795801 0)
(3.30148 -0.00770811 0)
(3.27564 -0.00738709 0)
(3.25184 -0.00701889 0)
(3.22989 -0.00662566 0)
(3.20962 -0.006225 0)
(3.19088 -0.00582958 0)
(3.17354 -0.00544771 0)
(3.1575 -0.00508434 0)
(3.14264 -0.00474192 0)
(3.12886 -0.00442125 0)
(3.11608 -0.00412209 0)
(3.10421 -0.00384361 0)
(3.09319 -0.00358465 0)
(3.08294 -0.00334391 0)
(3.07342 -0.00312007 0)
(3.06455 -0.00291187 0)
(3.0563 -0.00271815 0)
(3.04861 -0.00253778 0)
(3.04145 -0.00236975 0)
(3.03478 -0.00221314 0)
(3.02856 -0.00206714 0)
(3.02276 -0.00193097 0)
(3.01735 -0.0018039 0)
(3.0123 -0.00168528 0)
(3.00759 -0.00157456 0)
(3.0032 -0.0014712 0)
(2.9991 -0.00137466 0)
(2.99527 -0.00128446 0)
(2.9917 -0.00120021 0)
(2.98836 -0.00112153 0)
(2.98525 -0.00104802 0)
(2.98234 -0.0009793 0)
(2.97962 -0.000915078 0)
(2.97709 -0.000855095 0)
(2.97472 -0.000799058 0)
(2.97251 -0.000746666 0)
(2.97044 -0.000697682 0)
(2.96851 -0.000651924 0)
(2.96671 -0.000609186 0)
(2.96503 -0.000569234 0)
(2.96346 -0.000531871 0)
(2.96199 -0.000496958 0)
(2.96062 -0.000464358 0)
(2.95934 -0.000433894 0)
(2.95814 -0.0004054 0)
(2.95702 -0.000378766 0)
(2.95598 -0.000353899 0)
(2.955 -0.000330673 0)
(2.95409 -0.00030895 0)
(2.95324 -0.000288635 0)
(2.95245 -0.000269666 0)
(2.9517 -0.000251957 0)
(2.95101 -0.000235402 0)
(2.95036 -0.000219914 0)
(2.94976 -0.000205448 0)
(2.94919 -0.000191946 0)
(2.94866 -0.000179333 0)
(2.94817 -0.000167529 0)
(2.94771 -0.000156503 0)
(2.94728 -0.000146206 0)
(2.94688 -0.000136602 0)
(2.9465 -0.000127606 0)
(2.94615 -0.000119213 0)
(2.94582 -0.000111356 0)
(2.94552 -0.000104053 0)
(2.94523 -9.71858e-05 0)
(2.94496 -9.08145e-05 0)
(2.94471 -8.47973e-05 0)
(2.94448 -7.92662e-05 0)
(2.94426 -7.39934e-05 0)
(2.94406 -6.91967e-05 0)
(2.94387 -6.45629e-05 0)
(2.94369 -6.04286e-05 0)
(2.94353 -5.63971e-05 0)
(2.94337 -5.28447e-05 0)
(2.94323 -4.95294e-05 0)
(2.94309 -4.65294e-05 0)
(2.94296 -4.47789e-05 0)
(2.94285 -4.31858e-05 0)
(2.94267 -4.7426e-05 0)
)
;

boundaryField
{
    inlet
    {
        type            fixedValue;
        value           uniform (10 0 0);
    }
    outlet
    {
        type            pressureInletOutletVelocity;
        value           nonuniform List<vector> 10((2.94267 4.74529e-05 0) (7.64983 0.000204175 0) (11.1781 0.000398877 0) (13.5279 0.000423485 0) (14.7016 0.000184127 0) (14.7016 -0.000183927 0) (13.5279 -0.000423314 0) (11.1781 -0.000398737 0) (7.64983 -0.00020408 0) (2.94267 -4.7426e-05 0));
    }
    top
    {
        type            noSlip;
    }
    bottom
    {
        type            noSlip;
    }
    frontAndBack
    {
        type            empty;
    }
}


// ************************************************************************* //
